
.Version 9.3.2 of ABINIT 
.(MPI version, prepared for a x86_64_linux_intel19.1 computer) 

.Copyright (C) 1998-2020 ABINIT group . 
 ABINIT comes with ABSOLUTELY NO WARRANTY.
 It is free software, and you are welcome to redistribute it
 under certain conditions (GNU General Public License,
 see ~abinit/COPYING or http://www.gnu.org/copyleft/gpl.txt).

 ABINIT is a project of the Universite Catholique de Louvain,
 Corning Inc. and other collaborators, see ~abinit/doc/developers/contributors.txt .
 Please read https://docs.abinit.org/theory/acknowledgments for suggested
 acknowledgments of the ABINIT effort.
 For more information, see https://www.abinit.org .

.Starting date : Tue 28 Sep 2021.
- ( at 12h18 )
  
- input  file    -> abi.in
- output file    -> abi.out
- root for input  files -> abi-i
- root for output files -> abi-o
 
- inpspheads : Reading pseudopotential header in XML form from 
-   ~/ABINIT_PAW_PBE/paw_pbe_standard/La.xml
- inpspheads : Reading pseudopotential header in XML form from 
-   ~/ABINIT_PAW_PBE/paw_pbe_standard/Mo.xml
- inpspheads : Reading pseudopotential header in XML form from 
-   ~/ABINIT_PAW_PBE/paw_pbe_standard/O.xml
 
 DATASET    1 : space group P1 (#  1); Bravais aP (primitive triclinic)
================================================================================
 Values of the parameters that define the memory need for DATASET  1.
     intxc =       0    ionmov =       2      iscf =       7    lmnmax =      32
     lnmax =       8     mgfft =      75  mpssoang =       4    mqgrid =    3519
     natom =      26  nloc_mem =       2    nspden =       1   nspinor =       1
    nsppol =       1      nsym =       1    n1xccc =       1    ntypat =       3
    occopt =       1   xclevel =       2
-    mband =         104        mffmem =           1         mkmem =           1
       mpw =        1423          nfft =       27000          nkpt =           4
Pmy_natom=         7
 PAW method is used; the additional fine FFT grid is defined by:
   mgfftf=        75    nfftf =     27000
================================================================================
P This job should need less than                      42.494 Mbytes of memory.
  Rough estimation (10% accuracy) of disk space for files :
_ WF disk file :    135.493 Mbytes ; DEN or POT disk file :      0.208 Mbytes.
================================================================================
 
--------------------------------------------------------------------------------
------------- Echo of variables that govern the present computation ------------
--------------------------------------------------------------------------------
-
- outvars: echo of selected default values                                      
-   iomode0 =  0 , fftalg0 =512 , wfoptalg0 = 10
-
- outvars: echo of global parameters not present in the input file              
-  max_nthreads =    1
-
 -outvars: echo values of preprocessed input variables --------
-          iomode           1
            acell      1.0000000000E+00  1.0000000000E+00  1.0000000000E+00 Bohr
              amu      1.38905500E+02  9.59400000E+01  1.59994000E+01
        autoparal           1
           bandpp          26
     densfor_pred           6
           diemac      4.00000000E+00
          dilatmx      1.04000000E+00
             ecut      3.00000000E+01 Hartree
           ecutsm      5.00000000E-01 Hartree
-          fftalg         401
           ionmov           2
             iscf           7
              ixc     -116133
           jdtset        1
              kpt      2.50000000E-01  2.50000000E-01  2.50000000E-01
                      -2.50000000E-01  2.50000000E-01  2.50000000E-01
                       2.50000000E-01 -2.50000000E-01  2.50000000E-01
                      -2.50000000E-01 -2.50000000E-01  2.50000000E-01
         kptrlatt        2    0    0      0    2    0      0    0    2
          kptrlen      2.65094656E+01
P           mkmem           1
            natom          26
            nband         104
           ndtset           1
            ngfft          72      75      75
          ngfftdg          72      75      75
             nkpt           4
-           npfft          15
-           npkpt           4
            nstep         100
             nsym           1
            ntime         150
           ntypat           3
              occ      2.000000  2.000000  2.000000  2.000000  2.000000  2.000000
                       2.000000  2.000000  2.000000  2.000000  2.000000  2.000000
                       2.000000  2.000000  2.000000  2.000000  2.000000  2.000000
                       2.000000  2.000000  2.000000  2.000000  2.000000  2.000000
                       2.000000  2.000000  2.000000  2.000000  2.000000  2.000000
                       2.000000  2.000000  2.000000  2.000000  2.000000  2.000000
                       2.000000  2.000000  2.000000  2.000000  2.000000  2.000000
                       2.000000  2.000000  2.000000  2.000000  2.000000  2.000000
                       2.000000  2.000000  2.000000  2.000000  2.000000  2.000000
                       2.000000  2.000000  2.000000  2.000000  2.000000  2.000000
                       2.000000  2.000000  2.000000  2.000000  2.000000  2.000000
                       2.000000  2.000000  2.000000  2.000000  2.000000  2.000000
                       2.000000  2.000000  2.000000  2.000000  2.000000  2.000000
                       2.000000  2.000000  2.000000  2.000000  2.000000  2.000000
                       2.000000  2.000000  2.000000  2.000000  2.000000  2.000000
                       2.000000  2.000000  2.000000  2.000000  2.000000  2.000000
                       2.000000  2.000000  2.000000  2.000000  2.000000  2.000000
                       2.000000  2.000000
        paral_kgb           1
        pawecutdg      3.00000000E+01 Hartree
         pawmixdg           1
         pawxcdev           0
           prteig           0
            rprim      1.3729791650E+01  8.9808125004E-03 -2.8192424199E-01
                       8.9808125004E-03  1.3573727796E+01  1.5717417104E-02
                      -2.8192424199E-01  1.5717417104E-02  1.3251724915E+01
           shiftk      5.00000000E-01  5.00000000E-01  5.00000000E-01
          spgroup           1
           tolmxf      1.00000000E-10
           tolvrs      1.00000000E-20
            typat      1  1  1  1  2  2  2  2  3  3  3  3  3  3  3  3  3  3  3  3
                       3  3  3  3  3  3
           useylm           1
         wfoptalg         114
              wtk        0.25000    0.25000    0.25000    0.25000
           xangst      6.2971966624E+00  6.2980375187E+00  5.7788913554E+00
                       2.3922902592E+00  4.7711787395E+00  8.5974160121E-01
                       7.4441305332E-01  2.7057341685E+00  4.5959287518E+00
                       4.8000372694E+00  1.2017595275E+00  2.4859855498E+00
                       1.3023664179E+00  1.3895742310E+00  1.3213972983E+00
                       4.8200407227E+00  2.3741960132E+00  6.0363280166E+00
                       5.9064057538E+00  4.9932304991E+00  2.0462335595E+00
                       2.2226626028E+00  5.9715840450E+00  4.3409049196E+00
                       2.5426333352E+00  2.0897771667E+00  2.3660858384E+00
                       5.8498661395E+00  1.3115194518E+00  4.7148151733E+00
                       4.6426763683E+00  5.6557385015E+00  1.0100167599E+00
                       1.1815903017E+00  4.8986165633E+00  5.6562906675E+00
                       7.2102058535E+00  1.4133257144E+00  2.2856126190E+00
                       3.3491258292E+00  2.3316694832E+00  5.0475994744E+00
                      -1.0860209782E-02  5.0422875514E+00  1.0689557901E+00
                       3.6851377507E+00  5.9018512262E+00  5.3416636400E+00
                       1.5277864880E+00  7.0546924391E+00  4.6199331587E-01
                       1.1431867510E+00  1.7650930133E-01  4.7337926283E+00
                       5.8934994510E+00  3.7652298192E+00  5.6461845203E+00
                       5.7222541862E+00  3.4632597234E+00  2.9026654965E+00
                       9.7234986997E-01  2.6278444587E+00  7.0754367314E+00
                       6.0632335748E+00  6.2187450398E+00  3.3094377188E+00
                       1.6427509914E+00  4.5257044885E+00  3.2207221360E+00
                       5.5435210528E+00  9.1056346085E-01  1.3611012512E-01
                       4.0852770652E+00  3.0374931249E+00  7.5889747639E+00
                       2.9716430283E+00  6.6540473504E+00  2.8095525291E+00
            xcart      1.1899977097E+01  1.1901566085E+01  1.0920522013E+01
                       4.5207734203E+00  9.0162211487E+00  1.6246761713E+00
                       1.4067368005E+00  5.1130965669E+00  8.6850466672E+00
                       9.0707558667E+00  2.2709963845E+00  4.6978318595E+00
                       2.4611158546E+00  2.6259147379E+00  2.4970790065E+00
                       9.1085569153E+00  4.4865802507E+00  1.1407006800E+01
                       1.1161489304E+01  9.4358381616E+00  3.8668210314E+00
                       4.2002236050E+00  1.1284658424E+01  8.2031214669E+00
                       4.8048806598E+00  3.9491065239E+00  4.4712542414E+00
                       1.1054644918E+01  2.4784125818E+00  8.9097094447E+00
                       8.7733868597E+00  1.0687796847E+01  1.9086550658E+00
                       2.2328820714E+00  9.2570437347E+00  1.0688840290E+01
                       1.3625314425E+01  2.6707985368E+00  4.3191818957E+00
                       6.3289306018E+00  4.4062167556E+00  9.5385806351E+00
                      -2.0522822234E-02  9.5285425555E+00  2.0200336914E+00
                       6.9639011108E+00  1.1152882495E+01  1.0094281374E+01
                       2.8870980518E+00  1.3331436662E+01  8.7304084222E-01
                       2.1603098781E+00  3.3355423941E-01  8.9455716373E+00
                       1.1137099927E+01  7.1152531857E+00  1.0669742439E+01
                       1.0813493275E+01  6.5446124042E+00  5.4852428438E+00
                       1.8374749596E+00  4.9659063467E+00  1.3370637693E+01
                       1.1457850936E+01  1.1751725016E+01  6.2539309425E+00
                       3.1043494783E+00  8.5523420417E+00  6.0862827871E+00
                       1.0475736602E+01  1.7207155676E+00  2.5721086039E-01
                       7.7200548303E+00  5.7400301365E+00  1.4341083933E+01
                       5.6155914882E+00  1.2574327168E+01  5.3092848359E+00
             xred      8.8344033051E-01  8.7524965174E-01  8.4183973533E-01
                       3.3147929794E-01  6.6387206913E-01  1.2886577995E-01
                       1.1571187801E-01  3.7585287808E-01  6.5740582982E-01
                       6.6812061797E-01  1.6643945650E-01  3.6852374247E-01
                       1.8307191095E-01  1.9311211533E-01  1.9209998765E-01
                       6.8116516434E-01  3.2907037823E-01  8.7489528421E-01
                       8.1881782204E-01  6.9425566027E-01  3.0839409553E-01
                       3.1820687787E-01  8.3042628187E-01  6.2480768327E-01
                       3.5684740922E-01  2.9030231714E-01  3.4465666948E-01
                       8.1919814427E-01  1.8124847553E-01  6.8955645859E-01
                       6.4170765552E-01  7.8678239707E-01  1.5674954290E-01
                       1.7880909665E-01  6.8092665908E-01  8.0959637852E-01
                       9.9938691704E-01  1.9569936195E-01  3.4696293771E-01
                       4.7573189126E-01  3.2345409698E-01  7.2953650841E-01
                       1.1596627671E-03  7.0180786635E-01  1.5162780954E-01
                       5.2252387345E-01  8.2041264296E-01  7.7187677969E-01
                       2.1105860014E-01  9.8193021336E-01  6.9206837391E-02
                       1.7126475529E-01  2.3674357193E-02  6.7866510070E-01
                       8.2770295444E-01  5.2269338291E-01  8.2214780695E-01
                       7.9611422120E-01  4.8112792998E-01  4.3029301396E-01
                       1.5436933621E-01  3.6457315054E-01  1.0118251087E+00
                       8.4399738009E-01  8.6464541931E-01  4.8886347346E-01
                       2.3520970920E-01  6.2937345930E-01  4.6353980484E-01
                       7.6363963068E-01  1.2622172970E-01  3.5505981890E-02
                       5.8447620102E-01  4.2122430164E-01  1.0941399311E+00
                       4.1678866193E-01  9.2562374784E-01  4.0841771797E-01
            znucl       57.00000   42.00000    8.00000
 
================================================================================
 
 chkinp: Checking input parameters for consistency, jdtset=   1.
 
================================================================================
== DATASET  1 ==================================================================
-   mpi_nproc: 60, omp_nthreads: 1 (-1 if OMP is not activated)
 

--- !DatasetInfo
iteration_state: {dtset: 1, }
dimensions: {natom: 26, nkpt: 4, mband: 104, nsppol: 1, nspinor: 1, nspden: 1, mpw: 1423, }
cutoff_energies: {ecut:  30.0, pawecutdg:  30.0, }
electrons: {nelect:   2.08000000E+02, charge:   0.00000000E+00, occopt:   1.00000000E+00, tsmear:   1.00000000E-02, }
meta: {optdriver: 0, ionmov: 2, optcell: 0, iscf: 7, paral_kgb: 1, }
...

 Real(R)+Recip(G) space primitive vectors, cartesian coordinates (Bohr,Bohr^-1):
 R(1)= 13.7297917  0.0089808 -0.2819242  G(1)=  0.0728662 -0.0000500  0.0015503
 R(2)=  0.0089808 13.5737278  0.0157174  G(2)= -0.0000500  0.0736719 -0.0000884
 R(3)= -0.2819242  0.0157174 13.2517249  G(3)=  0.0015503 -0.0000884  0.0754950
 Unit cell volume ucvol=  2.4685671E+03 bohr^3
 Angles (23,13,12)=  8.98665358E+01  9.23950428E+01  8.99259914E+01 degrees
 
 Coarse grid specifications (used for wave-functions):
 
 getcut: wavevector=  0.0000  0.0000  0.0000  ngfft=  72  75  75
         ecut(hartree)=     32.448   => boxcut(ratio)=   2.04482
 
 Fine grid specifications (used for densities):
 
 getcut: wavevector=  0.0000  0.0000  0.0000  ngfft=  72  75  75
         ecut(hartree)=     32.448   => boxcut(ratio)=   2.04482
 
--- Pseudopotential description ------------------------------------------------
- pspini: atom type   1  psp file is ~/ABINIT_PAW_PBE/paw_pbe_standard/La.xml
- pspatm: opening atomic psp file    ~/ABINIT_PAW_PBE/paw_pbe_standard/La.xml
- pspatm : Reading pseudopotential header in XML form from ~/ABINIT_PAW_PBE/paw_pbe_standard/La.xml
 Pseudopotential format is: paw10
 basis_size (lnmax)=  8 (lmn_size= 32), orbitals=   0   0   1   1   2   2   3   3
 Spheres core radius: rc_sph= 2.51647158
 1 radial meshes are used:
  - mesh 1: r(i)=AA*[exp(BB*(i-1))-1], size=1500 , AA= 0.15403E-03 BB= 0.87795E-02
 Shapefunction is SIN type: shapef(r)=[sin(pi*r/rshp)/(pi*r/rshp)]**2
 Radius for shape functions =  2.30494653
 mmax= 1500
 Radial grid used for partial waves is grid 1
 Radial grid used for projectors is grid 1
 Radial grid used for (t)core density is grid 1
 Radial grid used for Vloc is grid 1
 Radial grid used for pseudo valence density is grid 1
 Mesh size for Vloc has been set to 1342 to avoid numerical noise.
 Compensation charge density is not taken into account in XC energy/potential
 pspatm: atomic psp has been read  and splines computed
 
- pspini: atom type   2  psp file is ~/ABINIT_PAW_PBE/paw_pbe_standard/Mo.xml
- pspatm: opening atomic psp file    ~/ABINIT_PAW_PBE/paw_pbe_standard/Mo.xml
- pspatm : Reading pseudopotential header in XML form from ~/ABINIT_PAW_PBE/paw_pbe_standard/Mo.xml
 Pseudopotential format is: paw10
 basis_size (lnmax)=  6 (lmn_size= 18), orbitals=   0   0   1   1   2   2
 Spheres core radius: rc_sph= 2.20000000
 1 radial meshes are used:
  - mesh 1: r(i)=AA*[exp(BB*(i-1))-1], size= 846 , AA= 0.34789E-03 BB= 0.14611E-01
 Shapefunction is SIN type: shapef(r)=[sin(pi*r/rshp)/(pi*r/rshp)]**2
 Radius for shape functions =  1.90088266
 mmax=  846
 Radial grid used for partial waves is grid 1
 Radial grid used for projectors is grid 1
 Radial grid used for (t)core density is grid 1
 Radial grid used for Vloc is grid 1
 Radial grid used for pseudo valence density is grid 1
 Mesh size for Vloc has been set to  751 to avoid numerical noise.
 Compensation charge density is not taken into account in XC energy/potential
 pspatm: atomic psp has been read  and splines computed
 
- pspini: atom type   3  psp file is ~/ABINIT_PAW_PBE/paw_pbe_standard/O.xml
- pspatm: opening atomic psp file    ~/ABINIT_PAW_PBE/paw_pbe_standard/O.xml
- pspatm : Reading pseudopotential header in XML form from ~/ABINIT_PAW_PBE/paw_pbe_standard/O.xml
 Pseudopotential format is: paw10
 basis_size (lnmax)=  4 (lmn_size=  8), orbitals=   0   0   1   1
 Spheres core radius: rc_sph= 1.41465230
 1 radial meshes are used:
  - mesh 1: r(i)=AA*[exp(BB*(i-1))-1], size=2001 , AA= 0.72565E-03 BB= 0.58052E-02
 Shapefunction is SIN type: shapef(r)=[sin(pi*r/rshp)/(pi*r/rshp)]**2
 Radius for shape functions =  1.20231231
 mmax= 2001
 Radial grid used for partial waves is grid 1
 Radial grid used for projectors is grid 1
 Radial grid used for (t)core density is grid 1
 Radial grid used for Vloc is grid 1
 Radial grid used for pseudo valence density is grid 1
 Mesh size for Vloc has been set to 1762 to avoid numerical noise.
 Compensation charge density is not taken into account in XC energy/potential
 pspatm: atomic psp has been read  and splines computed
 
   8.97881771E+04                                ecore*ucvol(ha*bohr**3)
--------------------------------------------------------------------------------
 
_setup2: Arith. and geom. avg. npw (full set) are    1419.500    1419.498
 
================================================================================
 
=== [ionmov= 2] Broyden-Fletcher-Goldfard-Shanno method (forces)            
================================================================================
 
--- Iteration: (  1/150) Internal Cycle: (1/1)
--------------------------------------------------------------------------------
 
---SELF-CONSISTENT-FIELD CONVERGENCE--------------------------------------------

--- !BeginCycle
iteration_state: {dtset: 1, itime: 1, icycle: 1, }
solver: {iscf: 7, nstep: 100, nline: 4, wfoptalg: 114, }
tolerances: {tolvrs: 1.00E-20, }
...
 
     iter   Etot(hartree)      deltaE(h)  residm     vres2
 ETOT  1  -689.04152543225    -6.890E+02 1.612E-02 2.344E+04
 ETOT  2  -685.99857297623     3.043E+00 4.466E-04 4.414E+04
 ETOT  3  -693.62854416180    -7.630E+00 6.699E-04 2.671E+03
 ETOT  4  -694.22363022318    -5.951E-01 1.983E-05 5.990E+02
 ETOT  5  -694.13502164141     8.861E-02 7.614E-05 8.023E+02
 ETOT  6  -694.27346052632    -1.384E-01 1.695E-05 2.636E+02
 ETOT  7  -694.32138048851    -4.792E-02 2.361E-06 7.064E+01
 ETOT  8  -694.33324240261    -1.186E-02 6.774E-07 1.865E+01
 ETOT  9  -694.33715562100    -3.913E-03 7.292E-07 7.334E-01
 ETOT 10  -694.33718339055    -2.777E-05 1.373E-07 4.216E-01
 ETOT 11  -694.33723078962    -4.740E-05 3.710E-08 1.832E-01
 ETOT 12  -694.33727518435    -4.439E-05 1.233E-08 9.569E-03
 ETOT 13  -694.33727502342     1.609E-07 1.968E-09 9.022E-03
 ETOT 14  -694.33727712562    -2.102E-06 3.712E-10 5.355E-04
 ETOT 15  -694.33727718398    -5.836E-08 5.157E-10 2.723E-04
 ETOT 16  -694.33727721498    -3.100E-08 1.165E-10 1.127E-04
 ETOT 17  -694.33727723496    -1.997E-08 1.314E-11 2.120E-05
 ETOT 18  -694.33727723742    -2.462E-09 3.419E-12 8.879E-06
 ETOT 19  -694.33727723921    -1.795E-09 2.079E-12 1.783E-06
 ETOT 20  -694.33727723934    -1.244E-10 1.726E-12 8.773E-07
 ETOT 21  -694.33727723954    -2.051E-10 2.233E-13 8.844E-08
 ETOT 22  -694.33727723957    -2.308E-11 3.153E-14 4.485E-08
 ETOT 23  -694.33727723957    -2.274E-12 1.171E-14 1.119E-08
 ETOT 24  -694.33727723957    -3.411E-12 4.512E-15 2.927E-09
 ETOT 25  -694.33727723957    -1.137E-13 1.417E-15 1.411E-09
 ETOT 26  -694.33727723957    -6.821E-13 3.537E-16 1.810E-10
 ETOT 27  -694.33727723957     0.000E+00 4.270E-17 6.219E-11
 ETOT 28  -694.33727723957     2.274E-13 7.977E-18 1.609E-11
 ETOT 29  -694.33727723957    -4.547E-13 6.370E-18 6.175E-12
 ETOT 30  -694.33727723957     1.137E-13 1.347E-18 1.731E-12
 ETOT 31  -694.33727723957     4.547E-13 3.830E-19 6.393E-13
 ETOT 32  -694.33727723957     3.411E-13 1.717E-19 1.020E-13
 ETOT 33  -694.33727723957    -2.274E-13 6.975E-20 8.077E-14
 ETOT 34  -694.33727723957     0.000E+00 2.169E-20 9.633E-15
 ETOT 35  -694.33727723957    -4.547E-13 4.462E-21 4.781E-15
 ETOT 36  -694.33727723957     7.958E-13 5.747E-22 1.021E-15
 ETOT 37  -694.33727723957     1.137E-13 2.472E-22 4.010E-16
 ETOT 38  -694.33727723957    -3.411E-13 1.023E-22 1.135E-16
 ETOT 39  -694.33727723957    -3.411E-13 5.331E-24 2.682E-17
 ETOT 40  -694.33727723957    -2.274E-13 2.101E-24 5.291E-18
 ETOT 41  -694.33727723957     0.000E+00 5.898E-25 1.978E-18
 ETOT 42  -694.33727723957     3.411E-13 1.480E-25 4.408E-19
 ETOT 43  -694.33727723957     1.137E-13 7.677E-26 2.313E-19
 ETOT 44  -694.33727723957    -5.684E-13 3.672E-26 8.104E-20
 ETOT 45  -694.33727723957     1.137E-13 1.513E-26 3.392E-20
 ETOT 46  -694.33727723957     3.411E-13 2.410E-27 5.723E-21
 
 At SCF step   46       vres2   =  5.72E-21 < tolvrs=  1.00E-20 =>converged.
 
 Cartesian components of stress tensor (hartree/bohr^3)
  sigma(1 1)= -3.33496826E-06  sigma(3 2)=  2.36565944E-07
  sigma(2 2)= -5.62566953E-06  sigma(3 1)= -1.38004881E-07
  sigma(3 3)= -2.50235338E-06  sigma(2 1)=  2.28278632E-07
 

--- !ResultsGS
iteration_state: {dtset: 1, itime: 1, icycle: 1, }
comment   : Summary of ground state results
lattice_vectors:
- [ 13.7297917,   0.0089808,  -0.2819242, ]
- [  0.0089808,  13.5737278,   0.0157174, ]
- [ -0.2819242,   0.0157174,  13.2517249, ]
lattice_lengths: [  13.73269,   13.57374,   13.25473, ]
lattice_angles: [ 89.867,  92.395,  89.926, ] # degrees, (23, 13, 12)
lattice_volume:   2.4685671E+03
convergence: {deltae:  3.411E-13, res2:  5.723E-21, residm:  2.410E-27, diffor: null, }
etotal    :  -6.94337277E+02
entropy   :   0.00000000E+00
fermie    :   1.12792523E-01
cartesian_stress_tensor: # hartree/bohr^3
- [ -3.33496826E-06,   2.28278632E-07,  -1.38004881E-07, ]
- [  2.28278632E-07,  -5.62566953E-06,   2.36565944E-07, ]
- [ -1.38004881E-07,   2.36565944E-07,  -2.50235338E-06, ]
pressure_GPa:   1.1242E-01
xred      :
- [  8.8344E-01,   8.7525E-01,   8.4184E-01, La]
- [  3.3148E-01,   6.6387E-01,   1.2887E-01, La]
- [  1.1571E-01,   3.7585E-01,   6.5741E-01, La]
- [  6.6812E-01,   1.6644E-01,   3.6852E-01, La]
- [  1.8307E-01,   1.9311E-01,   1.9210E-01, Mo]
- [  6.8117E-01,   3.2907E-01,   8.7490E-01, Mo]
- [  8.1882E-01,   6.9426E-01,   3.0839E-01, Mo]
- [  3.1821E-01,   8.3043E-01,   6.2481E-01, Mo]
- [  3.5685E-01,   2.9030E-01,   3.4466E-01,  O]
- [  8.1920E-01,   1.8125E-01,   6.8956E-01,  O]
- [  6.4171E-01,   7.8678E-01,   1.5675E-01,  O]
- [  1.7881E-01,   6.8093E-01,   8.0960E-01,  O]
- [  9.9939E-01,   1.9570E-01,   3.4696E-01,  O]
- [  4.7573E-01,   3.2345E-01,   7.2954E-01,  O]
- [  1.1597E-03,   7.0181E-01,   1.5163E-01,  O]
- [  5.2252E-01,   8.2041E-01,   7.7188E-01,  O]
- [  2.1106E-01,   9.8193E-01,   6.9207E-02,  O]
- [  1.7126E-01,   2.3674E-02,   6.7867E-01,  O]
- [  8.2770E-01,   5.2269E-01,   8.2215E-01,  O]
- [  7.9611E-01,   4.8113E-01,   4.3029E-01,  O]
- [  1.5437E-01,   3.6457E-01,   1.0118E+00,  O]
- [  8.4400E-01,   8.6465E-01,   4.8886E-01,  O]
- [  2.3521E-01,   6.2937E-01,   4.6354E-01,  O]
- [  7.6364E-01,   1.2622E-01,   3.5506E-02,  O]
- [  5.8448E-01,   4.2122E-01,   1.0941E+00,  O]
- [  4.1679E-01,   9.2562E-01,   4.0842E-01,  O]
cartesian_forces: # hartree/bohr
- [  1.41639228E-05,  -3.21796161E-04,   8.10521926E-05, ]
- [  2.54850495E-05,  -1.09220099E-04,   3.24607567E-04, ]
- [ -3.89189866E-05,  -8.55635567E-05,  -2.96034861E-04, ]
- [  1.41218094E-05,  -1.86323602E-04,  -4.37875535E-04, ]
- [ -4.68882751E-06,  -4.78299427E-05,   3.49067949E-07, ]
- [  2.62573516E-05,  -5.90130642E-04,  -1.04673410E-03, ]
- [ -1.51619709E-04,  -8.44133891E-05,  -7.38939099E-05, ]
- [  7.10223501E-05,  -8.92193430E-04,   8.43584505E-04, ]
- [  1.20209666E-03,   2.25941565E-04,  -2.35729134E-05, ]
- [  2.76135278E-05,   8.87617207E-05,   1.74272588E-05, ]
- [ -1.17554758E-03,   1.68328668E-05,   2.24417660E-04, ]
- [ -2.17031233E-05,   2.66485132E-04,   2.05380260E-04, ]
- [ -1.15310653E-04,  -4.65146991E-04,   2.95478479E-04, ]
- [ -5.35084208E-04,   1.87240754E-04,   5.06428163E-04, ]
- [  1.70954408E-04,  -2.35722260E-04,  -1.68407774E-04, ]
- [  4.77770729E-04,   1.09151630E-04,  -2.51302913E-04, ]
- [  2.21208878E-05,  -5.95516714E-04,   3.34506025E-04, ]
- [  4.70125640E-04,   3.09338413E-04,  -2.75754931E-04, ]
- [ -4.67513654E-04,   7.71667157E-04,   4.05599918E-04, ]
- [  2.52215248E-04,  -4.21377194E-04,  -1.70029649E-04, ]
- [ -6.44513478E-04,   4.52655059E-04,  -1.15973551E-03, ]
- [  5.16354583E-04,   5.27302164E-04,   9.67919850E-04, ]
- [ -4.90560532E-04,  -2.07482775E-04,  -4.67141604E-05, ]
- [  6.43420890E-04,  -7.23023960E-04,   5.82015218E-05, ]
- [ -6.51468422E-04,   1.02670510E-03,   1.38511781E-04, ]
- [  3.63206117E-04,   9.83659151E-04,  -4.53407995E-04, ]
force_length_stats: {min:   4.80604866E-05, max:   1.40188469E-03, mean:   7.11600737E-04, }
...

 Integrated electronic density in atomic spheres:
 ------------------------------------------------
 Atom  Sphere_radius  Integrated_density
    1        2.51647          7.83728895
    2        2.51647          7.86542616
    3        2.51647          7.82798660
    4        2.51647          7.86483807
    5        2.20000         11.60649021
    6        2.20000         11.37727182
    7        2.20000         11.61954992
    8        2.20000         11.37374603
    9        1.41465          4.55956673
   10        1.41465          4.55243013
   11        1.41465          4.56173068
   12        1.41465          4.55143074
   13        1.41465          4.57923967
   14        1.41465          4.52909008
   15        1.41465          4.58361621
   16        1.41465          4.53246608
   17        1.41465          4.57140120
   18        1.41465          4.53564217
   19        1.41465          4.54438423
   20        1.41465          4.55656003
   21        1.41465          4.55726194
   22        1.41465          4.56473906
   23        1.41465          4.54818532
   24        1.41465          4.55252049
   25        1.41465          4.55433486
   26        1.41465          4.55318303
 
 PAW TEST:
 ==== Compensation charge inside spheres ============
 The following values must be close to each other ...
 Compensation charge over spherical meshes =     21.028348394957799
 Compensation charge over fft grid         =     21.028469458976346
 
 ==== Results concerning PAW augmentation regions ====
 
 Total pseudopotential strength Dij (hartree):
 Atom #  1
   0.47654  -0.11796  -0.00063   0.00048   0.00007  -0.00003   0.00005   0.00001   0.00001   0.00004   0.00008   0.00001 ...
  -0.11796   0.02325   0.00012  -0.00009  -0.00001  -0.00004   0.00003   0.00000   0.00001  -0.00000  -0.00000   0.00000 ...
  -0.00063   0.00012  -0.17998   0.00003  -0.00004   0.04303   0.00009   0.00025   0.00001   0.00014   0.00009   0.00001 ...
   0.00048  -0.00009   0.00003  -0.17994  -0.00001   0.00009   0.04348   0.00009   0.00001  -0.00019   0.00014   0.00002 ...
   0.00007  -0.00001  -0.00004  -0.00001  -0.18010   0.00025   0.00009   0.04336  -0.00018   0.00001  -0.00000   0.00013 ...
  -0.00003  -0.00004   0.04303   0.00009   0.00025   0.31982   0.00002   0.00006   0.00002   0.00006   0.00000   0.00003 ...
   0.00005   0.00003   0.00009   0.04348   0.00009   0.00002   0.31994   0.00002   0.00003  -0.00009   0.00007   0.00002 ...
   0.00001   0.00000   0.00025   0.00009   0.04336   0.00006   0.00002   0.31990  -0.00003   0.00003   0.00000   0.00005 ...
   0.00001   0.00001   0.00001   0.00001  -0.00018   0.00002   0.00003  -0.00003  -0.05759   0.00001  -0.00002   0.00001 ...
   0.00004  -0.00000   0.00014  -0.00019   0.00001   0.00006  -0.00009   0.00003   0.00001  -0.05756   0.00001   0.00002 ...
   0.00008  -0.00000   0.00009   0.00014  -0.00000   0.00000   0.00007   0.00000  -0.00002   0.00001  -0.05753   0.00000 ...
   0.00001   0.00000   0.00001   0.00002   0.00013   0.00003   0.00002   0.00005   0.00001   0.00002   0.00000  -0.05754 ...
   ...  only 12  components have been written...
 Atom # 26
   0.61684  -1.76915   0.00035  -0.00084   0.00037  -0.00257   0.00606  -0.00269
  -1.76915   5.13242  -0.00091   0.00217  -0.00096   0.00684  -0.01609   0.00718
   0.00035  -0.00091  -0.30959   0.00037  -0.00031   0.96540  -0.00190   0.00157
  -0.00084   0.00217   0.00037  -0.30991   0.00038  -0.00190   0.96685  -0.00190
   0.00037  -0.00096  -0.00031   0.00038  -0.30950   0.00157  -0.00190   0.96492
  -0.00257   0.00684   0.96540  -0.00190   0.00157  -0.26039   0.00938  -0.00779
   0.00606  -0.01609  -0.00190   0.96685  -0.00190   0.00938  -0.26664   0.00921
  -0.00269   0.00718   0.00157  -0.00190   0.96492  -0.00779   0.00921  -0.25776
 
 
 Augmentation waves occupancies Rhoij:
 Atom #  1
   2.02396  -0.07871   0.00432  -0.00536  -0.00082  -0.00260   0.00259   0.00025   0.01641   0.00241   0.00494   0.00470 ...
  -0.07871   0.23335  -0.02163   0.02188   0.00269   0.00760  -0.00572  -0.00070  -0.03083   0.00099  -0.00413  -0.00772 ...
   0.00432  -0.02163   2.05832  -0.00252  -0.01074  -0.02934   0.00131   0.00650   0.01308   0.00636  -0.00572   0.01971 ...
  -0.00536   0.02188  -0.00252   2.04439  -0.00119   0.00131  -0.02069   0.00105   0.01759  -0.03273   0.02133   0.00551 ...
  -0.00082   0.00269  -0.01074  -0.00119   2.04099   0.00651   0.00105  -0.01854   0.00301   0.01720   0.00239   0.01085 ...
  -0.00260   0.00760  -0.02934   0.00131   0.00651   0.01683  -0.00017  -0.00267  -0.00400  -0.00075   0.00184  -0.00584 ...
   0.00259  -0.00572   0.00131  -0.02069   0.00105  -0.00017   0.01399  -0.00042  -0.00512   0.00950  -0.00463  -0.00168 ...
   0.00025  -0.00070   0.00650   0.00105  -0.01854  -0.00267  -0.00042   0.01194  -0.00182  -0.00488  -0.00093  -0.00240 ...
   0.01641  -0.03083   0.01308   0.01759   0.00301  -0.00400  -0.00512  -0.00182   0.10264  -0.01347   0.00754   0.00282 ...
   0.00241   0.00099   0.00636  -0.03273   0.01720  -0.00075   0.00950  -0.00488  -0.01347   0.11802   0.00392  -0.02229 ...
   0.00494  -0.00413  -0.00572   0.02133   0.00239   0.00184  -0.00463  -0.00093   0.00754   0.00392   0.09835   0.00845 ...
   0.00470  -0.00772   0.01971   0.00551   0.01085  -0.00584  -0.00168  -0.00240   0.00282  -0.02229   0.00845   0.07622 ...
   ...  only 12  components have been written...
 Atom # 26
   1.99797   0.02901  -0.00043   0.01040   0.00001  -0.00169   0.00476  -0.00174
   0.02901   0.00111  -0.00492   0.01170  -0.00505  -0.00020   0.00049  -0.00023
  -0.00043  -0.00492   1.68392  -0.02462   0.02060   0.02878  -0.00283   0.00276
   0.01040   0.01170  -0.02462   1.80353  -0.04068  -0.00277   0.03332  -0.00310
   0.00001  -0.00505   0.02060  -0.04068   1.70522   0.00274  -0.00313   0.02882
  -0.00169  -0.00020   0.02878  -0.00277   0.00274   0.00065  -0.00017   0.00014
   0.00476   0.00049  -0.00283   0.03332  -0.00313  -0.00017   0.00089  -0.00018
  -0.00174  -0.00023   0.00276  -0.00310   0.02882   0.00014  -0.00018   0.00064
 
 
 
---OUTPUT-----------------------------------------------------------------------
 
 Cartesian coordinates (xcart) [bohr]
  1.18999770969511E+01  1.19015660848884E+01  1.09205220134831E+01
  4.52077342025393E+00  9.01622114869503E+00  1.62467617132769E+00
  1.40673680051634E+00  5.11309656689493E+00  8.68504666724949E+00
  9.07075586673547E+00  2.27099638447935E+00  4.69783185952218E+00
  2.46111585458510E+00  2.62591473789807E+00  2.49707900647842E+00
  9.10855691529128E+00  4.48658025073801E+00  1.14070067996389E+01
  1.11614893043677E+01  9.43583816158762E+00  3.86682103140337E+00
  4.20022360503643E+00  1.12846584244796E+01  8.20312146687305E+00
  4.80488065983620E+00  3.94910652390884E+00  4.47125424141035E+00
  1.10546449177404E+01  2.47841258181446E+00  8.90970944465533E+00
  8.77338685973754E+00  1.06877968470172E+01  1.90865506580187E+00
  2.23288207141309E+00  9.25704373469435E+00  1.06888402896332E+01
  1.36253144249079E+01  2.67079853676863E+00  4.31918189573291E+00
  6.32893060179966E+00  4.40621675560323E+00  9.53858063507214E+00
 -2.05228222337741E-02  9.52854255549856E+00  2.02003369142336E+00
  6.96390111081339E+00  1.11528824945939E+01  1.00942813736161E+01
  2.88709805183136E+00  1.33314366616952E+01  8.73040842215119E-01
  2.16030987807130E+00  3.33554239412071E-01  8.94557163732223E+00
  1.11370999266584E+01  7.11525318567338E+00  1.06697424391629E+01
  1.08134932746691E+01  6.54461240421351E+00  5.48524284384253E+00
  1.83747495958615E+00  4.96590634671606E+00  1.33706376928986E+01
  1.14578509360448E+01  1.17517250155537E+01  6.25393094245272E+00
  3.10434947832339E+00  8.55234204167705E+00  6.08628278712502E+00
  1.04757366017095E+01  1.72071556761680E+00  2.57210860390864E-01
  7.72005483027573E+00  5.74003013651581E+00  1.43410839332204E+01
  5.61559148823110E+00  1.25743271675332E+01  5.30928483594391E+00
 Reduced coordinates (xred)
  8.83440330507057E-01  8.75249651738572E-01  8.41839735327923E-01
  3.31479297936839E-01  6.63872069129784E-01  1.28865779954014E-01
  1.15711878011158E-01  3.75852878079717E-01  6.57405829815637E-01
  6.68120617973089E-01  1.66439456498681E-01  3.68523742473718E-01
  1.83071910946573E-01  1.93112115334925E-01  1.92099987650535E-01
  6.81165164341556E-01  3.29070378232178E-01  8.74895284211091E-01
  8.18817822042800E-01  6.94255660266196E-01  3.08394095531417E-01
  3.18206877869914E-01  8.30426281873888E-01  6.24807683265298E-01
  3.56847409217375E-01  2.90302317144085E-01  3.44656669484154E-01
  8.19198144273637E-01  1.81248475532281E-01  6.89556458587829E-01
  6.41707655521670E-01  7.86782397072971E-01  1.56749542898573E-01
  1.78809096645346E-01  6.80926659082452E-01  8.09596378516117E-01
  9.99386917040405E-01  1.95699361948827E-01  3.46962937710744E-01
  4.75731891260703E-01  3.23454096981970E-01  7.29536508408925E-01
  1.15966276706932E-03  7.01807866349195E-01  1.51627809540447E-01
  5.22523873451694E-01  8.20412642961776E-01  7.71876779694262E-01
  2.11058600138207E-01  9.81930213356734E-01  6.92068373906014E-02
  1.71264755293009E-01  2.36743571930348E-02  6.78665100695754E-01
  8.27702954439936E-01  5.22693382908882E-01  8.22147806951768E-01
  7.96114221195738E-01  4.81127929983736E-01  4.30293013956297E-01
  1.54369336205646E-01  3.64573150543234E-01  1.01182510870383E+00
  8.43997380085921E-01  8.64645419311421E-01  4.88863473463346E-01
  2.35209709199751E-01  6.29373459303798E-01  4.63539804839378E-01
  7.63639630681689E-01  1.26221729699936E-01  3.55059818902470E-02
  5.84476201021841E-01  4.21224301636286E-01  1.09413993106676E+00
  4.16788661931350E-01  9.25623747835386E-01  4.08417717971149E-01
 Cartesian forces (fcart) [Ha/bohr]; max,rms= 1.20210E-03 4.73580E-04 (free atoms)
  1.41639228117377E-05 -3.21796160736037E-04  8.10521926246611E-05
  2.54850495353005E-05 -1.09220098625546E-04  3.24607566832006E-04
 -3.89189865557656E-05 -8.55635566884861E-05 -2.96034860511344E-04
  1.41218093740386E-05 -1.86323602075314E-04 -4.37875535353671E-04
 -4.68882751043965E-06 -4.78299427108033E-05  3.49067949167089E-07
  2.62573516012274E-05 -5.90130642320646E-04 -1.04673409886548E-03
 -1.51619709093187E-04 -8.44133891215808E-05 -7.38939098827851E-05
  7.10223501052598E-05 -8.92193430272324E-04  8.43584505399944E-04
  1.20209665594279E-03  2.25941565226154E-04 -2.35729133700855E-05
  2.76135277782075E-05  8.87617206782465E-05  1.74272587859717E-05
 -1.17554757634335E-03  1.68328668045247E-05  2.24417660206001E-04
 -2.17031233159106E-05  2.66485131572027E-04  2.05380259704468E-04
 -1.15310653475291E-04 -4.65146991250534E-04  2.95478478935194E-04
 -5.35084207571044E-04  1.87240754178282E-04  5.06428162688677E-04
  1.70954407685996E-04 -2.35722260287301E-04 -1.68407774048801E-04
  4.77770728747200E-04  1.09151629713441E-04 -2.51302913359237E-04
  2.21208878107460E-05 -5.95516713757946E-04  3.34506024547770E-04
  4.70125639742774E-04  3.09338412946340E-04 -2.75754930554250E-04
 -4.67513654179873E-04  7.71667156960719E-04  4.05599918445469E-04
  2.52215248246544E-04 -4.21377193827325E-04 -1.70029648617940E-04
 -6.44513477963444E-04  4.52655059427858E-04 -1.15973550827678E-03
  5.16354583333524E-04  5.27302163666592E-04  9.67919849659716E-04
 -4.90560532020146E-04 -2.07482774753117E-04 -4.67141604408253E-05
  6.43420890356342E-04 -7.23023960135084E-04  5.82015218288798E-05
 -6.51468421620800E-04  1.02670510418741E-03  1.38511780762122E-04
  3.63206116577567E-04  9.83659151200453E-04 -4.53407995088848E-04
 Reduced forces (fred)
 -1.68727140203771E-04  4.36657235713190E-03 -1.06503040274361E-03
 -2.57408792863469E-04  1.47719301967409E-03 -4.29270866989533E-03
  4.51658603253120E-04  1.16641885528987E-03  3.91334516909858E-03
 -3.15663891483743E-04  2.53586130373811E-03  5.80951594772735E-03
  6.49045872661573E-05  6.49267245912189E-04 -5.19588342106800E-06
 -6.50307831505912E-04  8.02648884730438E-03  1.38877102508064E-02
  2.06163263219378E-03  1.14832745589712E-03  9.37803255556432E-04
 -7.29282525299512E-04  1.20964939563870E-02 -1.11449039096919E-02
 -1.65132115439953E-02 -3.07729460365464E-03  6.47730734128993E-04
 -3.75011968767689E-04 -1.20534933864513E-03 -2.24551421555059E-04
  1.62031409039470E-02 -2.21454645641784E-04 -3.30560102770804E-03
  3.53487782320570E-04 -3.62022977329540E-03 -2.73194979914764E-03
  1.67067119136881E-03  6.31017006944918E-03 -3.94079748047578E-03
  7.48768748701432E-03 -2.54470928135125E-03 -6.86484285185563E-03
 -2.39252965582423E-03  3.20074142245935E-03  2.28359463214420E-03
 -6.63152121591504E-03 -1.48193544689746E-03  3.46317664705127E-03
 -2.04061599399512E-04  8.07792553655150E-03 -4.41718542063593E-03
 -6.53524719311552E-03 -4.19876336929104E-03  3.78190629744524E-03
  6.52628331699572E-03 -1.04765762687002E-02 -5.51883059196710E-03
 -3.50701397964669E-03  5.72006665771297E-03  2.33091468468749E-03
  8.51801300385352E-03 -6.12020026096267E-03  1.51796773878445E-02
 -6.82129637870812E-03 -7.17730651980642E-03 -1.26893225410871E-02
  6.72398740604483E-03  2.82145456506118E-03  4.84003390974746E-04
 -8.81113300539892E-03  9.80743720524212E-03 -5.78510540964827E-04
  8.97435487826529E-03 -1.39325419431916E-02 -2.03532190946906E-03
 -5.12340507039573E-03 -1.33480570463734E-02  6.09537405315283E-03
 Total energy (etotal) [Ha]= -6.94337277239572E+02
 
--- Iteration: (  2/150) Internal Cycle: (1/1)
--------------------------------------------------------------------------------
 
---SELF-CONSISTENT-FIELD CONVERGENCE--------------------------------------------

--- !BeginCycle
iteration_state: {dtset: 1, itime: 2, icycle: 1, }
solver: {iscf: 7, nstep: 100, nline: 4, wfoptalg: 114, }
tolerances: {tolvrs: 1.00E-20, }
...
 
     iter   Etot(hartree)      deltaE(h)  residm     vres2
 ETOT  1  -694.33729089785    -6.943E+02 4.312E-11 1.717E+01
 ETOT  2  -694.33729116025    -2.624E-07 1.713E-11 1.572E+00
 ETOT  3  -694.33728201902     9.141E-06 4.421E-09 5.630E-02
 ETOT  4  -694.33729115356    -9.135E-06 3.212E-09 3.540E-03
 ETOT  5  -694.33729209549    -9.419E-07 4.271E-11 9.585E-04
 ETOT  6  -694.33729224807    -1.526E-07 8.051E-11 1.912E-04
 ETOT  7  -694.33729224622     1.848E-09 2.792E-11 1.498E-04
 ETOT  8  -694.33729227573    -2.951E-08 9.022E-12 2.111E-05
 ETOT  9  -694.33729227800    -2.265E-09 9.749E-13 6.734E-06
 ETOT 10  -694.33729227891    -9.068E-10 7.567E-13 2.720E-06
 ETOT 11  -694.33729227941    -5.083E-10 1.021E-13 2.483E-07
 ETOT 12  -694.33729227948    -6.719E-11 7.964E-14 1.775E-08
 ETOT 13  -694.33729227949    -4.661E-12 6.516E-15 7.747E-09
 ETOT 14  -694.33729227949    -1.137E-12 8.176E-16 1.954E-09
 ETOT 15  -694.33729227949    -1.137E-12 2.560E-16 5.625E-10
 ETOT 16  -694.33729227949     0.000E+00 2.008E-16 1.812E-10
 ETOT 17  -694.33729227949    -6.821E-13 1.142E-17 1.057E-11
 ETOT 18  -694.33729227949     1.137E-13 2.517E-18 4.847E-12
 ETOT 19  -694.33729227949     0.000E+00 9.922E-19 1.835E-12
 ETOT 20  -694.33729227949    -3.411E-13 1.834E-19 5.645E-13
 ETOT 21  -694.33729227949     9.095E-13 7.163E-20 1.985E-13
 ETOT 22  -694.33729227949    -6.821E-13 6.501E-20 7.619E-14
 ETOT 23  -694.33729227949     3.411E-13 1.760E-20 6.724E-15
 ETOT 24  -694.33729227949    -1.137E-13 5.572E-21 3.774E-15
 ETOT 25  -694.33729227949    -4.547E-13 4.068E-22 8.254E-16
 ETOT 26  -694.33729227949     2.274E-13 4.159E-22 4.682E-16
 ETOT 27  -694.33729227949     4.547E-13 7.233E-23 2.457E-17
 ETOT 28  -694.33729227949    -6.821E-13 2.619E-23 4.654E-17
 ETOT 29  -694.33729227949     5.684E-13 2.619E-24 4.578E-18
 ETOT 30  -694.33729227949     2.274E-13 3.886E-25 1.871E-18
 ETOT 31  -694.33729227949    -2.274E-13 2.444E-25 4.460E-19
 ETOT 32  -694.33729227949     0.000E+00 7.074E-26 1.578E-19
 ETOT 33  -694.33729227949     4.547E-13 1.286E-26 2.658E-20
 ETOT 34  -694.33729227949    -1.137E-13 4.980E-27 8.690E-21
 
 At SCF step   34       vres2   =  8.69E-21 < tolvrs=  1.00E-20 =>converged.
 
 Cartesian components of stress tensor (hartree/bohr^3)
  sigma(1 1)= -2.54655037E-06  sigma(3 2)=  2.70878529E-07
  sigma(2 2)= -4.08959178E-06  sigma(3 1)= -3.19603989E-07
  sigma(3 3)= -8.96260813E-07  sigma(2 1)=  1.95861490E-07
 

--- !ResultsGS
iteration_state: {dtset: 1, itime: 2, icycle: 1, }
comment   : Summary of ground state results
lattice_vectors:
- [ 13.7297917,   0.0089808,  -0.2819242, ]
- [  0.0089808,  13.5737278,   0.0157174, ]
- [ -0.2819242,   0.0157174,  13.2517249, ]
lattice_lengths: [  13.73269,   13.57374,   13.25473, ]
lattice_angles: [ 89.867,  92.395,  89.926, ] # degrees, (23, 13, 12)
lattice_volume:   2.4685671E+03
convergence: {deltae: -1.137E-13, res2:  8.690E-21, residm:  4.980E-27, diffor: null, }
etotal    :  -6.94337292E+02
entropy   :   0.00000000E+00
fermie    :   1.12758255E-01
cartesian_stress_tensor: # hartree/bohr^3
- [ -2.54655037E-06,   1.95861490E-07,  -3.19603989E-07, ]
- [  1.95861490E-07,  -4.08959178E-06,   2.70878529E-07, ]
- [ -3.19603989E-07,   2.70878529E-07,  -8.96260813E-07, ]
pressure_GPa:   7.3870E-02
xred      :
- [  8.8344E-01,   8.7523E-01,   8.4185E-01, La]
- [  3.3148E-01,   6.6386E-01,   1.2889E-01, La]
- [  1.1571E-01,   3.7585E-01,   6.5738E-01, La]
- [  6.6812E-01,   1.6643E-01,   3.6849E-01, La]
- [  1.8307E-01,   1.9311E-01,   1.9210E-01, Mo]
- [  6.8117E-01,   3.2903E-01,   8.7482E-01, Mo]
- [  8.1881E-01,   6.9425E-01,   3.0839E-01, Mo]
- [  3.1821E-01,   8.3036E-01,   6.2487E-01, Mo]
- [  3.5693E-01,   2.9032E-01,   3.4466E-01,  O]
- [  8.1920E-01,   1.8126E-01,   6.8956E-01,  O]
- [  6.4162E-01,   7.8678E-01,   1.5676E-01,  O]
- [  1.7881E-01,   6.8095E-01,   8.0961E-01,  O]
- [  9.9938E-01,   1.9567E-01,   3.4699E-01,  O]
- [  4.7569E-01,   3.2347E-01,   7.2957E-01,  O]
- [  1.1719E-03,   7.0179E-01,   1.5162E-01,  O]
- [  5.2256E-01,   8.2042E-01,   7.7186E-01,  O]
- [  2.1106E-01,   9.8189E-01,   6.9232E-02,  O]
- [  1.7130E-01,   2.3697E-02,   6.7864E-01,  O]
- [  8.2767E-01,   5.2275E-01,   8.2218E-01,  O]
- [  7.9613E-01,   4.8110E-01,   4.3028E-01,  O]
- [  1.5432E-01,   3.6461E-01,   1.0117E+00,  O]
- [  8.4404E-01,   8.6468E-01,   4.8894E-01,  O]
- [  2.3517E-01,   6.2936E-01,   4.6354E-01,  O]
- [  7.6369E-01,   1.2617E-01,   3.5511E-02,  O]
- [  5.8443E-01,   4.2130E-01,   1.0941E+00,  O]
- [  4.1681E-01,   9.2570E-01,   4.0838E-01,  O]
cartesian_forces: # hartree/bohr
- [  1.92136273E-05,  -3.10757571E-04,   8.74948293E-05, ]
- [  5.66855883E-05,  -1.64665894E-04,   3.78522570E-04, ]
- [ -3.65777156E-05,  -1.01704108E-04,  -2.83368611E-04, ]
- [ -3.18094184E-05,  -2.38611779E-04,  -5.06766727E-04, ]
- [  1.55020963E-04,   1.70040036E-04,  -9.93650452E-05, ]
- [  6.40053008E-05,  -3.66775348E-04,  -5.32420679E-04, ]
- [ -1.96275195E-04,   1.65361477E-04,   6.04275484E-05, ]
- [  5.36047623E-05,  -5.21382008E-04,   3.98060316E-04, ]
- [  8.10735531E-04,   1.36386492E-04,  -2.48251146E-04, ]
- [  4.60466338E-07,   1.37217766E-04,   3.02182340E-05, ]
- [ -8.64099298E-04,  -3.55762283E-05,   3.80210161E-04, ]
- [  2.46047093E-06,   2.64830239E-04,   1.72236088E-04, ]
- [  8.04974432E-05,  -4.37825878E-04,   1.88732997E-04, ]
- [ -5.60737708E-04,   1.76799244E-04,   4.38545775E-04, ]
- [ -3.45458619E-05,  -2.28381328E-04,  -5.59927710E-05, ]
- [  5.08073198E-04,   8.23018660E-05,  -2.12595936E-04, ]
- [ -2.83158120E-05,  -3.64939048E-04,   3.87106253E-04, ]
- [  5.39402502E-04,   1.87340897E-04,  -2.57161225E-04, ]
- [ -5.46049768E-04,   6.19162829E-04,   3.67722784E-04, ]
- [  2.80517959E-04,  -2.74100496E-04,  -2.03046838E-04, ]
- [ -5.79543274E-04,   1.03266618E-04,  -7.85697246E-04, ]
- [  4.48000524E-04,   1.88726912E-04,   5.90966405E-04, ]
- [ -4.35897724E-04,  -1.71535184E-04,   4.58722093E-06, ]
- [  5.50649458E-04,  -5.65603687E-04,  -1.54736538E-05, ]
- [ -4.38624975E-04,   7.86855332E-04,  -1.76695223E-04, ]
- [  1.83148954E-04,   7.63568852E-04,  -1.07996079E-04, ]
force_length_stats: {min:   1.40506473E-04, max:   9.81760950E-04, mean:   5.73770084E-04, }
...

 Integrated electronic density in atomic spheres:
 ------------------------------------------------
 Atom  Sphere_radius  Integrated_density
    1        2.51647          7.83784077
    2        2.51647          7.86603552
    3        2.51647          7.82784278
    4        2.51647          7.86482044
    5        2.20000         11.60479596
    6        2.20000         11.37765857
    7        2.20000         11.61748727
    8        2.20000         11.37167393
    9        1.41465          4.56035175
   10        1.41465          4.55249618
   11        1.41465          4.56039151
   12        1.41465          4.55237149
   13        1.41465          4.57996962
   14        1.41465          4.52920867
   15        1.41465          4.58119971
   16        1.41465          4.53259167
   17        1.41465          4.57135264
   18        1.41465          4.53714485
   19        1.41465          4.54600080
   20        1.41465          4.55652931
   21        1.41465          4.55782040
   22        1.41465          4.56466149
   23        1.41465          4.54821633
   24        1.41465          4.55139258
   25        1.41465          4.55408474
   26        1.41465          4.55542525
 
 PAW TEST:
 ==== Compensation charge inside spheres ============
 The following values must be close to each other ...
 Compensation charge over spherical meshes =     21.027804690147654
 Compensation charge over fft grid         =     21.027924921160860
 
 ==== Results concerning PAW augmentation regions ====
 
 Total pseudopotential strength Dij (hartree):
 Atom #  1
   0.47653  -0.11796  -0.00063   0.00048   0.00007  -0.00003   0.00005   0.00001   0.00001   0.00004   0.00008   0.00001 ...
  -0.11796   0.02325   0.00012  -0.00009  -0.00001  -0.00004   0.00003   0.00000   0.00001  -0.00000  -0.00000   0.00000 ...
  -0.00063   0.00012  -0.17999   0.00003  -0.00004   0.04302   0.00009   0.00025   0.00002   0.00014   0.00009   0.00001 ...
   0.00048  -0.00009   0.00003  -0.17994  -0.00001   0.00009   0.04348   0.00009   0.00001  -0.00019   0.00014   0.00002 ...
   0.00007  -0.00001  -0.00004  -0.00001  -0.18011   0.00025   0.00009   0.04336  -0.00018   0.00001  -0.00000   0.00013 ...
  -0.00003  -0.00004   0.04302   0.00009   0.00025   0.31982   0.00002   0.00006   0.00002   0.00006   0.00000   0.00003 ...
   0.00005   0.00003   0.00009   0.04348   0.00009   0.00002   0.31994   0.00002   0.00003  -0.00009   0.00007   0.00002 ...
   0.00001   0.00000   0.00025   0.00009   0.04336   0.00006   0.00002   0.31990  -0.00003   0.00003   0.00000   0.00005 ...
   0.00001   0.00001   0.00002   0.00001  -0.00018   0.00002   0.00003  -0.00003  -0.05759   0.00001  -0.00002   0.00001 ...
   0.00004  -0.00000   0.00014  -0.00019   0.00001   0.00006  -0.00009   0.00003   0.00001  -0.05756   0.00001   0.00002 ...
   0.00008  -0.00000   0.00009   0.00014  -0.00000   0.00000   0.00007   0.00000  -0.00002   0.00001  -0.05753   0.00000 ...
   0.00001   0.00000   0.00001   0.00002   0.00013   0.00003   0.00002   0.00005   0.00001   0.00002   0.00000  -0.05754 ...
   ...  only 12  components have been written...
 Atom # 26
   0.61682  -1.76910   0.00035  -0.00084   0.00037  -0.00256   0.00605  -0.00268
  -1.76910   5.13225  -0.00091   0.00216  -0.00096   0.00683  -0.01605   0.00715
   0.00035  -0.00091  -0.30955   0.00037  -0.00031   0.96523  -0.00189   0.00157
  -0.00084   0.00216   0.00037  -0.30988   0.00038  -0.00189   0.96666  -0.00189
   0.00037  -0.00096  -0.00031   0.00038  -0.30947   0.00157  -0.00189   0.96474
  -0.00256   0.00683   0.96523  -0.00189   0.00157  -0.25950   0.00935  -0.00778
   0.00605  -0.01605  -0.00189   0.96666  -0.00189   0.00935  -0.26566   0.00918
  -0.00268   0.00715   0.00157  -0.00189   0.96474  -0.00778   0.00918  -0.25684
 
 
 Augmentation waves occupancies Rhoij:
 Atom #  1
   2.02397  -0.07872   0.00430  -0.00536  -0.00083  -0.00260   0.00259   0.00025   0.01639   0.00236   0.00491   0.00469 ...
  -0.07872   0.23340  -0.02155   0.02188   0.00273   0.00758  -0.00572  -0.00071  -0.03081   0.00108  -0.00406  -0.00772 ...
   0.00430  -0.02155   2.05832  -0.00250  -0.01073  -0.02934   0.00130   0.00650   0.01312   0.00628  -0.00577   0.01973 ...
  -0.00536   0.02188  -0.00250   2.04442  -0.00119   0.00130  -0.02071   0.00104   0.01761  -0.03271   0.02141   0.00554 ...
  -0.00083   0.00273  -0.01073  -0.00119   2.04097   0.00650   0.00105  -0.01853   0.00305   0.01722   0.00237   0.01084 ...
  -0.00260   0.00758  -0.02934   0.00130   0.00650   0.01683  -0.00017  -0.00267  -0.00401  -0.00073   0.00185  -0.00585 ...
   0.00259  -0.00572   0.00130  -0.02071   0.00105  -0.00017   0.01400  -0.00042  -0.00513   0.00950  -0.00465  -0.00168 ...
   0.00025  -0.00071   0.00650   0.00104  -0.01853  -0.00267  -0.00042   0.01194  -0.00183  -0.00489  -0.00093  -0.00240 ...
   0.01639  -0.03081   0.01312   0.01761   0.00305  -0.00401  -0.00513  -0.00183   0.10263  -0.01350   0.00752   0.00285 ...
   0.00236   0.00108   0.00628  -0.03271   0.01722  -0.00073   0.00950  -0.00489  -0.01350   0.11802   0.00391  -0.02229 ...
   0.00491  -0.00406  -0.00577   0.02141   0.00237   0.00185  -0.00465  -0.00093   0.00752   0.00391   0.09844   0.00845 ...
   0.00469  -0.00772   0.01973   0.00554   0.01084  -0.00585  -0.00168  -0.00240   0.00285  -0.02229   0.00845   0.07622 ...
   ...  only 12  components have been written...
 Atom # 26
   1.99787   0.02900  -0.00035   0.01027   0.00009  -0.00169   0.00475  -0.00173
   0.02900   0.00111  -0.00492   0.01169  -0.00504  -0.00020   0.00048  -0.00023
  -0.00035  -0.00492   1.68372  -0.02459   0.02060   0.02877  -0.00283   0.00276
   0.01027   0.01169  -0.02459   1.80315  -0.04050  -0.00277   0.03330  -0.00310
   0.00009  -0.00504   0.02060  -0.04050   1.70507   0.00274  -0.00313   0.02881
  -0.00169  -0.00020   0.02877  -0.00277   0.00274   0.00065  -0.00017   0.00014
   0.00475   0.00048  -0.00283   0.03330  -0.00313  -0.00017   0.00089  -0.00018
  -0.00173  -0.00023   0.00276  -0.00310   0.02881   0.00014  -0.00018   0.00064
 
 
 
---OUTPUT-----------------------------------------------------------------------
 
 Cartesian coordinates (xcart) [bohr]
  1.18999912608739E+01  1.19012442887277E+01  1.09206030656758E+01
  4.52079890530347E+00  9.01611192859640E+00  1.62500077889452E+00
  1.40669788152978E+00  5.11301100333824E+00  8.68475063238898E+00
  9.07076998854484E+00  2.27081006087727E+00  4.69739398398682E+00
  2.46111116575759E+00  2.62586690795536E+00  2.49707935554637E+00
  9.10858317264288E+00  4.48599012009569E+00  1.14059600655401E+01
  1.11613376846586E+01  9.43575374819850E+00  3.86674713749349E+00
  4.20029462738653E+00  1.12837662310493E+01  8.20396505137845E+00
  4.80608275649214E+00  3.94933246547407E+00  4.47123066849698E+00
  1.10546725312682E+01  2.47850134353514E+00  8.90972687191412E+00
  8.77221131216120E+00  1.06878136798840E+01  1.90887948346208E+00
  2.23286036828977E+00  9.25731021982592E+00  1.06890456698929E+01
  1.36251991142544E+01  2.67033338977738E+00  4.31947737421185E+00
  6.32839551759209E+00  4.40640399635741E+00  9.53908706323483E+00
 -2.03518678260881E-02  9.52830683323827E+00  2.01986528364931E+00
  6.96437888154214E+00  1.11529916462236E+01  1.00940300707027E+01
  2.88712017271917E+00  1.33308411449814E+01  8.73375348239667E-01
  2.16078000371104E+00  3.33863577825017E-01  8.94529588239167E+00
  1.11366324130042E+01  7.11602485283034E+00  1.06701480390813E+01
  1.08137454899173E+01  6.54419102701968E+00  5.48507281419391E+00
  1.83683044610819E+00  4.96635900177549E+00  1.33694779573903E+01
  1.14583672906282E+01  1.17522523177174E+01  6.25489886230238E+00
  3.10385891779137E+00  8.55213455890230E+00  6.08623607296458E+00
  1.04763800225998E+01  1.71999254365666E+00  2.57269061912693E-01
  7.71940336185411E+00  5.74105684161999E+00  1.43412224450012E+01
  5.61595469434768E+00  1.25753108266844E+01  5.30883142794882E+00
 Reduced coordinates (xred)
  8.83441504321099E-01  8.75225936538504E-01  8.41845904778426E-01
  3.31481663620658E-01  6.63863992697609E-01  1.28890335357419E-01
  1.15708587482852E-01  3.75846602581472E-01  6.57383427908905E-01
  6.68120977474707E-01  1.66425767712542E-01  3.68490723449132E-01
  1.83071572222525E-01  1.93108591817447E-01  1.92100010964785E-01
  6.81165484421506E-01  3.29026993471111E-01  8.74816353960811E-01
  8.18806663760295E-01  6.94249455491689E-01  3.08388289330512E-01
  3.18213405381768E-01  8.30360474159002E-01  6.24871558655254E-01
  3.56934953569255E-01  2.90318904653743E-01  3.44656733419141E-01
  8.19200178944063E-01  1.81255011851606E-01  6.89557809215597E-01
  6.41622344919982E-01  7.86783676117427E-01  1.56764661415709E-01
  1.78807820287242E-01  6.80946274459765E-01  8.09611826476413E-01
  9.99378996119748E-01  1.95665073335601E-01  3.46985107225256E-01
  4.75693677446009E-01  3.23467873324458E-01  7.29573895106627E-01
  1.17187027488462E-03  7.01790506596588E-01  1.51615381472988E-01
  5.22558291739421E-01  8.20420682700749E-01  7.71858538602694E-01
  2.11060760351114E-01  9.81886309838844E-01  6.92321778721605E-02
  1.71298568594991E-01  2.36971476105590E-02  6.78644984043074E-01
  8.27669478699562E-01  5.22750220573001E-01  8.22177634687929E-01
  7.96132356640271E-01  4.81096888765904E-01  4.30280605840339E-01
  1.54320552449955E-01  3.64606633286008E-01  1.01173651532437E+00
  8.44036479025946E-01  8.64684155218233E-01  4.88937300377695E-01
  2.35173901883073E-01  6.29358202323244E-01  4.63535536013162E-01
  7.63686640688065E-01  1.26168425854243E-01  3.55114372239097E-02
  5.84428894392233E-01  4.21299961242574E-01  1.09414928726169E+00
  4.16814375288750E-01  9.25696237778024E-01  4.08383964015809E-01
 Cartesian forces (fcart) [Ha/bohr]; max,rms= 8.64099E-04 3.60049E-04 (free atoms)
  1.92136272757802E-05 -3.10757570996464E-04  8.74948293265785E-05
  5.66855883041972E-05 -1.64665893826703E-04  3.78522569695202E-04
 -3.65777156288979E-05 -1.01704108303822E-04 -2.83368611225148E-04
 -3.18094184314464E-05 -2.38611779128648E-04 -5.06766727430062E-04
  1.55020963262984E-04  1.70040035749394E-04 -9.93650452097745E-05
  6.40053008438195E-05 -3.66775348242406E-04 -5.32420678530266E-04
 -1.96275195402038E-04  1.65361477299842E-04  6.04275484087020E-05
  5.36047622982334E-05 -5.21382008498945E-04  3.98060315807489E-04
  8.10735530887375E-04  1.36386491654015E-04 -2.48251145809968E-04
  4.60466338121008E-07  1.37217766151758E-04  3.02182339842375E-05
 -8.64099298267341E-04 -3.55762283027903E-05  3.80210160861450E-04
  2.46047092797404E-06  2.64830239099564E-04  1.72236088416014E-04
  8.04974432047703E-05 -4.37825877605132E-04  1.88732996646124E-04
 -5.60737707596110E-04  1.76799243888042E-04  4.38545774754635E-04
 -3.45458618766450E-05 -2.28381327791205E-04 -5.59927710377601E-05
  5.08073198162435E-04  8.23018659596685E-05 -2.12595935972834E-04
 -2.83158120153810E-05 -3.64939048177454E-04  3.87106253018072E-04
  5.39402502078782E-04  1.87340896662154E-04 -2.57161225491703E-04
 -5.46049767910730E-04  6.19162828725666E-04  3.67722783792739E-04
  2.80517959478917E-04 -2.74100496337403E-04 -2.03046837925770E-04
 -5.79543273591357E-04  1.03266617786385E-04 -7.85697245991425E-04
  4.48000524235597E-04  1.88726912031116E-04  5.90966404783860E-04
 -4.35897723903033E-04 -1.71535184358886E-04  4.58722092579006E-06
  5.50649458250839E-04 -5.65603687288267E-04 -1.54736537757221E-05
 -4.38624975278831E-04  7.86855331710046E-04 -1.76695222829709E-04
  1.83148954351986E-04  7.63568852140474E-04 -1.07996079190753E-04
 Reduced forces (fred)
 -2.36341330425999E-04  4.21659093269256E-03 -1.14915631606117E-03
 -6.70087794928005E-04  2.22867154041761E-03 -4.99750780370271E-03
  4.23229319227243E-04  1.38528620216321E-03  3.74640926666536E-03
  2.96009789729138E-04  3.24710207738012E-03  6.71031578270192E-03
 -2.15794603973482E-03 -2.30790761211078E-03  1.35778982268914E-03
 -1.02558780067158E-03  4.98630219777779E-03  7.07930177804329E-03
  2.71036844931908E-03 -2.24375873514762E-03 -8.58703039801827E-04
 -6.19076930951183E-04  7.07035956701495E-03 -5.25167854421784E-03
 -1.12024428000664E-02 -1.85465230981445E-03  3.51617825075081E-03
  9.64818796395689E-07 -1.86303569453554E-03 -4.02470616420286E-04
  1.19714132950787E-02  4.84686431101631E-04 -5.28149183490478E-03
  1.23973847456067E-05 -3.59746278128625E-03 -2.28589404506831E-03
 -1.04807268443854E-03  5.93923995719640E-03 -2.47146208135983E-03
  7.82086077993891E-03 -2.40168173780842E-03 -5.97235235035089E-03
  4.60572816292803E-04  3.10117628888357E-03  7.35851047690255E-04
 -7.03641423951779E-03 -1.11836457680831E-03  2.95920744008845E-03
  5.01182285492584E-04  4.94775329082605E-03 -5.13207259250691E-03
 -7.48006642613981E-03 -2.54371669893122E-03  3.55695594555463E-03
  7.59525892583408E-03 -8.40522338061545E-03 -5.03663748317255E-03
 -3.90623531847537E-03  3.72123761881231E-03  2.77411380599045E-03
  7.73457388001111E-03 -1.38415905948733E-03  1.02468333878095E-02
 -5.98604102221127E-03 -2.57503960596884E-03 -7.70798832164418E-03
  5.98761870407065E-03  2.33221451647086E-03 -1.80982635188433E-04
 -7.55958515149482E-03  7.67264841827301E-03  3.69183863454659E-04
  5.96534825616944E-03 -1.06738436866684E-02  2.20549013962767E-03
 -2.55190116565014E-03 -1.03644231598275E-02  1.47076713333359E-03
 Total energy (etotal) [Ha]= -6.94337292279488E+02
 
 Difference of energy with previous step (new-old):
           Absolute (Ha)=-1.50399E-05
           Relative     =-2.16608E-08
 
--- Iteration: (  3/150) Internal Cycle: (1/1)
--------------------------------------------------------------------------------
 
---SELF-CONSISTENT-FIELD CONVERGENCE--------------------------------------------

--- !BeginCycle
iteration_state: {dtset: 1, itime: 3, icycle: 1, }
solver: {iscf: 7, nstep: 100, nline: 4, wfoptalg: 114, }
tolerances: {tolvrs: 1.00E-20, }
...
 
     iter   Etot(hartree)      deltaE(h)  residm     vres2
 ETOT  1  -694.33731190094    -6.943E+02 6.005E-10 1.841E+02
 ETOT  2  -694.33731759376    -5.693E-06 2.362E-11 1.687E+01
 ETOT  3  -694.33730902932     8.564E-06 1.309E-08 5.928E-02
 ETOT  4  -694.33730738629     1.643E-06 3.226E-08 5.873E-02
 ETOT  5  -694.33731772099    -1.033E-05 2.418E-09 1.568E-02
 ETOT  6  -694.33732020345    -2.482E-06 9.455E-10 1.527E-03
 ETOT  7  -694.33732049253    -2.891E-07 1.271E-10 3.712E-04
 ETOT  8  -694.33732054036    -4.783E-08 1.566E-10 1.369E-04
 ETOT  9  -694.33732057003    -2.967E-08 2.762E-11 2.232E-05
 ETOT 10  -694.33732057240    -2.371E-09 3.965E-12 1.921E-05
 ETOT 11  -694.33732057616    -3.756E-09 3.873E-12 4.023E-07
 ETOT 12  -694.33732057622    -6.150E-11 2.272E-13 6.912E-07
 ETOT 13  -694.33732057637    -1.452E-10 7.536E-14 1.424E-07
 ETOT 14  -694.33732057639    -1.887E-11 4.532E-14 3.662E-08
 ETOT 15  -694.33732057639    -8.754E-12 1.468E-14 1.091E-08
 ETOT 16  -694.33732057640    -1.023E-12 7.266E-15 3.396E-09
 ETOT 17  -694.33732057640    -1.478E-12 7.079E-16 1.069E-09
 ETOT 18  -694.33732057640     1.137E-13 9.368E-17 1.278E-10
 ETOT 19  -694.33732057640    -4.547E-13 1.112E-16 9.799E-11
 ETOT 20  -694.33732057640     3.411E-13 1.750E-17 9.670E-12
 ETOT 21  -694.33732057640     1.137E-13 1.951E-18 4.250E-12
 ETOT 22  -694.33732057640     0.000E+00 2.031E-18 1.039E-12
 ETOT 23  -694.33732057640     2.274E-13 1.688E-19 2.535E-13
 ETOT 24  -694.33732057640    -5.684E-13 2.056E-20 6.776E-14
 ETOT 25  -694.33732057640    -3.411E-13 6.668E-20 2.266E-14
 ETOT 26  -694.33732057640     4.547E-13 6.053E-21 3.526E-15
 ETOT 27  -694.33732057640     2.274E-13 3.041E-21 1.276E-15
 ETOT 28  -694.33732057640    -2.274E-13 3.824E-22 4.135E-16
 ETOT 29  -694.33732057640     1.137E-13 3.956E-22 2.249E-16
 ETOT 30  -694.33732057640    -6.821E-13 9.081E-23 3.529E-17
 ETOT 31  -694.33732057640     9.095E-13 3.123E-24 4.328E-18
 ETOT 32  -694.33732057640    -2.274E-13 4.255E-25 1.398E-18
 ETOT 33  -694.33732057640     2.274E-13 1.484E-25 4.015E-19
 ETOT 34  -694.33732057640     1.137E-13 5.495E-26 1.645E-19
 ETOT 35  -694.33732057640    -2.274E-13 7.220E-27 3.750E-20
 ETOT 36  -694.33732057640     0.000E+00 8.885E-27 1.291E-20
 ETOT 37  -694.33732057640     0.000E+00 2.406E-27 3.590E-21
 
 At SCF step   37       vres2   =  3.59E-21 < tolvrs=  1.00E-20 =>converged.
 
 Cartesian components of stress tensor (hartree/bohr^3)
  sigma(1 1)= -1.20163768E-07  sigma(3 2)=  2.35721982E-07
  sigma(2 2)= -5.73940979E-08  sigma(3 1)= -5.70578373E-07
  sigma(3 3)=  2.76691195E-06  sigma(2 1)=  1.11472093E-07
 

--- !ResultsGS
iteration_state: {dtset: 1, itime: 3, icycle: 1, }
comment   : Summary of ground state results
lattice_vectors:
- [ 13.7297917,   0.0089808,  -0.2819242, ]
- [  0.0089808,  13.5737278,   0.0157174, ]
- [ -0.2819242,   0.0157174,  13.2517249, ]
lattice_lengths: [  13.73269,   13.57374,   13.25473, ]
lattice_angles: [ 89.867,  92.395,  89.926, ] # degrees, (23, 13, 12)
lattice_volume:   2.4685671E+03
convergence: {deltae:  0.000E+00, res2:  3.590E-21, residm:  2.406E-27, diffor: null, }
etotal    :  -6.94337321E+02
entropy   :   0.00000000E+00
fermie    :   1.12656259E-01
cartesian_stress_tensor: # hartree/bohr^3
- [ -1.20163768E-07,   1.11472093E-07,  -5.70578373E-07, ]
- [  1.11472093E-07,  -5.73940979E-08,   2.35721982E-07, ]
- [ -5.70578373E-07,   2.35721982E-07,   2.76691195E-06, ]
pressure_GPa:  -2.5394E-02
xred      :
- [  8.8345E-01,   8.7513E-01,   8.4187E-01, La]
- [  3.3150E-01,   6.6381E-01,   1.2901E-01, La]
- [  1.1570E-01,   3.7582E-01,   6.5729E-01, La]
- [  6.6811E-01,   1.6635E-01,   3.6833E-01, La]
- [  1.8311E-01,   1.9315E-01,   1.9207E-01, Mo]
- [  6.8118E-01,   3.2890E-01,   8.7461E-01, Mo]
- [  8.1875E-01,   6.9429E-01,   3.0840E-01, Mo]
- [  3.1823E-01,   8.3017E-01,   6.2503E-01, Mo]
- [  3.5721E-01,   2.9037E-01,   3.4459E-01,  O]
- [  8.1920E-01,   1.8130E-01,   6.8957E-01,  O]
- [  6.4133E-01,   7.8678E-01,   1.5687E-01,  O]
- [  1.7881E-01,   6.8103E-01,   8.0967E-01,  O]
- [  9.9940E-01,   1.9552E-01,   3.4705E-01,  O]
- [  4.7552E-01,   3.2352E-01,   7.2972E-01,  O]
- [  1.1718E-03,   7.0172E-01,   1.5159E-01,  O]
- [  5.2272E-01,   8.2045E-01,   7.7179E-01,  O]
- [  2.1106E-01,   9.8176E-01,   6.9356E-02,  O]
- [  1.7146E-01,   2.3764E-02,   6.7856E-01,  O]
- [  8.2750E-01,   5.2296E-01,   8.2230E-01,  O]
- [  7.9622E-01,   4.8100E-01,   4.3022E-01,  O]
- [  1.5413E-01,   3.6466E-01,   1.0115E+00,  O]
- [  8.4419E-01,   8.6476E-01,   4.8916E-01,  O]
- [  2.3503E-01,   6.2930E-01,   4.6353E-01,  O]
- [  7.6387E-01,   1.2598E-01,   3.5515E-02,  O]
- [  5.8428E-01,   4.2156E-01,   1.0941E+00,  O]
- [  4.1688E-01,   9.2595E-01,   4.0833E-01,  O]
cartesian_forces: # hartree/bohr
- [  4.26404864E-05,  -2.58544918E-04,   1.00563514E-04, ]
- [  4.59124073E-05,  -2.78868865E-04,   4.53293413E-04, ]
- [ -3.54352773E-05,  -1.28647034E-04,  -2.21737996E-04, ]
- [ -5.51815454E-05,  -3.22797771E-04,  -6.30948388E-04, ]
- [  2.75372182E-04,   3.46237709E-04,  -3.30755678E-04, ]
- [ -5.32422915E-05,   2.36384841E-04,   6.11002952E-04, ]
- [ -1.33659161E-04,   3.62908108E-04,   3.69276128E-04, ]
- [  2.03766803E-04,   4.29570287E-04,  -5.74844629E-04, ]
- [ -1.17713825E-04,   3.68712480E-05,  -7.38253220E-04, ]
- [ -6.48236964E-05,   2.50045177E-04,   1.63283699E-05, ]
- [ -9.47517688E-05,  -6.01921686E-05,   7.22518775E-04, ]
- [  6.60776750E-05,   2.23993200E-04,   9.18037183E-05, ]
- [  6.69951249E-04,  -3.17585304E-04,  -1.43381322E-04, ]
- [ -4.31120505E-04,   1.28158893E-04,   3.45152451E-04, ]
- [ -6.00212331E-04,  -1.68124006E-04,   2.46481660E-04, ]
- [  4.21678593E-04,   5.51150221E-06,  -2.12080154E-04, ]
- [ -1.25363550E-04,   3.04546300E-04,   5.21578450E-04, ]
- [  6.34512221E-04,  -8.79325623E-05,  -1.65139107E-04, ]
- [ -7.05102293E-04,   1.68786646E-04,   2.25187160E-04, ]
- [  3.25364041E-04,   2.06189597E-04,  -3.31898520E-04, ]
- [ -3.97945238E-04,  -6.77678364E-04,   1.25170577E-04, ]
- [  2.64039994E-04,  -5.14566500E-04,  -2.63836144E-04, ]
- [ -2.37205047E-04,  -3.31659187E-05,   1.05865179E-04, ]
- [  2.28991283E-04,  -4.02139825E-05,  -1.64735561E-04, ]
- [  1.33698076E-04,   6.11640467E-05,  -8.80182109E-04, ]
- [ -2.60248479E-04,   1.27949841E-04,   7.23570481E-04, ]
force_length_stats: {min:   2.50932532E-04, max:   8.92377028E-04, mean:   5.74036431E-04, }
...

 Integrated electronic density in atomic spheres:
 ------------------------------------------------
 Atom  Sphere_radius  Integrated_density
    1        2.51647          7.83745638
    2        2.51647          7.86721670
    3        2.51647          7.82748905
    4        2.51647          7.86685726
    5        2.20000         11.60095182
    6        2.20000         11.37427260
    7        2.20000         11.61393465
    8        2.20000         11.36548142
    9        1.41465          4.55927435
   10        1.41465          4.55441734
   11        1.41465          4.55735405
   12        1.41465          4.55252517
   13        1.41465          4.57881326
   14        1.41465          4.52676298
   15        1.41465          4.58148914
   16        1.41465          4.53407399
   17        1.41465          4.57356294
   18        1.41465          4.53834964
   19        1.41465          4.54484933
   20        1.41465          4.55559508
   21        1.41465          4.55896836
   22        1.41465          4.56705888
   23        1.41465          4.54907089
   24        1.41465          4.55050647
   25        1.41465          4.55114582
   26        1.41465          4.55282944
 
 PAW TEST:
 ==== Compensation charge inside spheres ============
 The following values must be close to each other ...
 Compensation charge over spherical meshes =     21.026401686538772
 Compensation charge over fft grid         =     21.026518567161169
 
 ==== Results concerning PAW augmentation regions ====
 
 Total pseudopotential strength Dij (hartree):
 Atom #  1
   0.47649  -0.11795  -0.00062   0.00048   0.00008  -0.00003   0.00005   0.00001   0.00001   0.00004   0.00008   0.00001 ...
  -0.11795   0.02325   0.00012  -0.00009  -0.00001  -0.00004   0.00003   0.00000   0.00001  -0.00000  -0.00000   0.00000 ...
  -0.00062   0.00012  -0.17999   0.00003  -0.00004   0.04302   0.00008   0.00025   0.00002   0.00014   0.00009   0.00001 ...
   0.00048  -0.00009   0.00003  -0.17995  -0.00001   0.00008   0.04347   0.00009   0.00001  -0.00019   0.00014   0.00002 ...
   0.00008  -0.00001  -0.00004  -0.00001  -0.18011   0.00025   0.00009   0.04336  -0.00017   0.00001  -0.00000   0.00013 ...
  -0.00003  -0.00004   0.04302   0.00008   0.00025   0.31982   0.00002   0.00006   0.00002   0.00006  -0.00000   0.00003 ...
   0.00005   0.00003   0.00008   0.04347   0.00009   0.00002   0.31994   0.00002   0.00003  -0.00009   0.00007   0.00002 ...
   0.00001   0.00000   0.00025   0.00009   0.04336   0.00006   0.00002   0.31990  -0.00003   0.00003   0.00000   0.00005 ...
   0.00001   0.00001   0.00002   0.00001  -0.00017   0.00002   0.00003  -0.00003  -0.05760   0.00001  -0.00002   0.00001 ...
   0.00004  -0.00000   0.00014  -0.00019   0.00001   0.00006  -0.00009   0.00003   0.00001  -0.05756   0.00001   0.00002 ...
   0.00008  -0.00000   0.00009   0.00014  -0.00000  -0.00000   0.00007   0.00000  -0.00002   0.00001  -0.05753   0.00000 ...
   0.00001   0.00000   0.00001   0.00002   0.00013   0.00003   0.00002   0.00005   0.00001   0.00002   0.00000  -0.05754 ...
   ...  only 12  components have been written...
 Atom # 26
   0.61678  -1.76896   0.00035  -0.00083   0.00036  -0.00255   0.00600  -0.00265
  -1.76896   5.13180  -0.00091   0.00214  -0.00095   0.00681  -0.01593   0.00707
   0.00035  -0.00091  -0.30947   0.00037  -0.00031   0.96479  -0.00188   0.00157
  -0.00083   0.00214   0.00037  -0.30979   0.00037  -0.00188   0.96618  -0.00187
   0.00036  -0.00095  -0.00031   0.00037  -0.30938   0.00157  -0.00187   0.96429
  -0.00255   0.00681   0.96479  -0.00188   0.00157  -0.25721   0.00928  -0.00776
   0.00600  -0.01593  -0.00188   0.96618  -0.00187   0.00928  -0.26316   0.00910
  -0.00265   0.00707   0.00157  -0.00187   0.96429  -0.00776   0.00910  -0.25448
 
 
 Augmentation waves occupancies Rhoij:
 Atom #  1
   2.02398  -0.07873   0.00423  -0.00535  -0.00086  -0.00256   0.00258   0.00027   0.01636   0.00222   0.00483   0.00466 ...
  -0.07873   0.23354  -0.02122   0.02185   0.00289   0.00747  -0.00571  -0.00076  -0.03076   0.00138  -0.00390  -0.00767 ...
   0.00423  -0.02122   2.05835  -0.00245  -0.01073  -0.02935   0.00126   0.00649   0.01325   0.00599  -0.00597   0.01978 ...
  -0.00535   0.02185  -0.00245   2.04448  -0.00116   0.00126  -0.02075   0.00103   0.01768  -0.03261   0.02159   0.00561 ...
  -0.00086   0.00289  -0.01073  -0.00116   2.04094   0.00650   0.00103  -0.01851   0.00322   0.01727   0.00229   0.01080 ...
  -0.00256   0.00747  -0.02935   0.00126   0.00650   0.01685  -0.00015  -0.00267  -0.00405  -0.00062   0.00191  -0.00587 ...
   0.00258  -0.00571   0.00126  -0.02075   0.00103  -0.00015   0.01403  -0.00042  -0.00516   0.00947  -0.00472  -0.00171 ...
   0.00027  -0.00076   0.00649   0.00103  -0.01851  -0.00267  -0.00042   0.01195  -0.00186  -0.00491  -0.00091  -0.00238 ...
   0.01636  -0.03076   0.01325   0.01768   0.00322  -0.00405  -0.00516  -0.00186   0.10262  -0.01358   0.00746   0.00297 ...
   0.00222   0.00138   0.00599  -0.03261   0.01727  -0.00062   0.00947  -0.00491  -0.01358   0.11799   0.00385  -0.02232 ...
   0.00483  -0.00390  -0.00597   0.02159   0.00229   0.00191  -0.00472  -0.00091   0.00746   0.00385   0.09868   0.00846 ...
   0.00466  -0.00767   0.01978   0.00561   0.01080  -0.00587  -0.00171  -0.00238   0.00297  -0.02232   0.00846   0.07619 ...
   ...  only 12  components have been written...
 Atom # 26
   1.99762   0.02896  -0.00010   0.00994   0.00028  -0.00168   0.00471  -0.00171
   0.02896   0.00111  -0.00493   0.01164  -0.00500  -0.00020   0.00048  -0.00022
  -0.00010  -0.00493   1.68327  -0.02465   0.02057   0.02874  -0.00283   0.00277
   0.00994   0.01164  -0.02465   1.80221  -0.04005  -0.00277   0.03324  -0.00308
   0.00028  -0.00500   0.02057  -0.04005   1.70475   0.00275  -0.00312   0.02877
  -0.00168  -0.00020   0.02874  -0.00277   0.00275   0.00065  -0.00017   0.00014
   0.00471   0.00048  -0.00283   0.03324  -0.00312  -0.00017   0.00089  -0.00018
  -0.00171  -0.00022   0.00277  -0.00308   0.02877   0.00014  -0.00018   0.00064
 
 
 
---OUTPUT-----------------------------------------------------------------------
 
 Cartesian coordinates (xcart) [bohr]
  1.19000706793041E+01  1.18998898671837E+01  1.09209772045370E+01
  4.52102091663138E+00  9.01544046898478E+00  1.62659974751795E+00
  1.40653767350574E+00  5.11258262885582E+00  8.68351362293918E+00
  9.07066684219528E+00  2.26981591133378E+00  4.69525080024024E+00
  2.46166221109048E+00  2.62643914650222E+00  2.49672414411841E+00
  9.10883195243460E+00  4.48423291969439E+00  1.14032659057360E+01
  1.11605211662562E+01  9.43628165821082E+00  3.86690758411254E+00
  4.20053996132477E+00  1.12812281159602E+01  8.20602532700973E+00
  4.80988975132025E+00  3.94999078771003E+00  4.47032478075570E+00
  1.10546950046413E+01  2.47905917883594E+00  8.90984812011104E+00
  8.76823343373919E+00  1.06876991025891E+01  1.91040892633449E+00
  2.23285280207556E+00  9.25845862259837E+00  1.06898167354075E+01
  1.36254001237313E+01  2.66841627123362E+00  4.32037540870467E+00
  6.32598594010036E+00  4.40717770560633E+00  9.54103789136756E+00
 -2.03465208393883E-02  9.52731202637003E+00  2.01953795879113E+00
  6.96655682802041E+00  1.11533683999989E+01  1.00930799845771E+01
  2.88703555750490E+00  1.33290864517090E+01  8.75012490064546E-01
  2.16306426367801E+00  3.34767085269678E-01  8.94416792396014E+00
  1.11343263426496E+01  7.11882187441355E+00  1.06717694561625E+01
  1.08149392525967E+01  6.54289264094174E+00  5.48421818575357E+00
  1.83427106105883E+00  4.96706982581762E+00  1.33657924847805E+01
  1.14603594292582E+01  1.17533251714425E+01  6.25774302566692E+00
  3.10192953029857E+00  8.55136441513246E+00  6.08621725183959E+00
  1.04788352170891E+01  1.71742381448825E+00  2.57257600982529E-01
  7.71734286128605E+00  5.74464612594986E+00  1.43406947898507E+01
  5.61688383220085E+00  1.25787843393344E+01  5.30810311657453E+00
 Reduced coordinates (xred)
  8.83447938977670E-01  8.75126116716087E-01  8.41874393285331E-01
  3.31500353121629E-01  6.63814372495630E-01  1.29011452989917E-01
  1.15695017479023E-01  3.75815160851301E-01  6.57289829453760E-01
  6.68110188829606E-01  1.66352721570398E-01  3.68328851900769E-01
  1.83111145509439E-01  1.93150753559064E-01  1.92073997941202E-01
  6.81179523295287E-01  3.28897763081285E-01  8.74613499558497E-01
  8.18747389515824E-01  6.94288374246843E-01  3.08399089741117E-01
  3.18234602798369E-01  8.30173292001157E-01  6.25027703891454E-01
  3.57210917473657E-01  2.90367294229049E-01  3.44594187041884E-01
  8.19201976563446E-01  1.81296096771059E-01  6.89566948345889E-01
  6.41334868858466E-01  7.86775298641644E-01  1.56873970059168E-01
  1.78808406886230E-01  6.81030811616168E-01  8.09669924738357E-01
  9.99395130960641E-01  1.95523746160469E-01  3.47053385475791E-01
  4.75521086320661E-01  3.23524821882096E-01  7.29717368913885E-01
  1.17180219897249E-03  7.01717246001862E-01  1.51590766369279E-01
  5.22715498670918E-01  8.20448413973212E-01  7.71790154935631E-01
  2.11057220492490E-01  9.81756897749944E-01  6.93557978451977E-02
  1.71463220096760E-01  2.37636962235205E-02  6.78563290138247E-01
  8.27503817896501E-01  5.22956254281729E-01  8.22296221134384E-01
  7.96218081605627E-01  4.81001250133734E-01  4.30218051168588E-01
  1.54128310871032E-01  3.64659454958718E-01  1.01145425015395E+00
  8.44185994087411E-01  8.64762843186751E-01  4.89155013809854E-01
  2.35033324116106E-01  6.29301562540490E-01  4.63531192188138E-01
  7.63865652021318E-01  1.25979061026186E-01  3.55146053420624E-02
  5.84277756098249E-01  4.21564540216904E-01  1.09410594021055E+00
  4.16880775254641E-01  9.25952155884649E-01  4.08330113366899E-01
 Cartesian forces (fcart) [Ha/bohr]; max,rms= 8.80182E-04 3.49886E-04 (free atoms)
  4.26404864181407E-05 -2.58544917973984E-04  1.00563513779852E-04
  4.59124073205100E-05 -2.78868865336777E-04  4.53293412758165E-04
 -3.54352773019519E-05 -1.28647033715197E-04 -2.21737995718404E-04
 -5.51815453944552E-05 -3.22797771116962E-04 -6.30948387941605E-04
  2.75372181613332E-04  3.46237709017403E-04 -3.30755677704387E-04
 -5.32422914657401E-05  2.36384841310573E-04  6.11002951766536E-04
 -1.33659161243180E-04  3.62908107855233E-04  3.69276127970948E-04
  2.03766802982840E-04  4.29570286527006E-04 -5.74844629006199E-04
 -1.17713825409602E-04  3.68712480121385E-05 -7.38253220113414E-04
 -6.48236964488885E-05  2.50045176766106E-04  1.63283698520685E-05
 -9.47517687567313E-05 -6.01921685833788E-05  7.22518775082480E-04
  6.60776750486711E-05  2.23993200208029E-04  9.18037182896229E-05
  6.69951249038176E-04 -3.17585304473527E-04 -1.43381322190425E-04
 -4.31120505338562E-04  1.28158892676683E-04  3.45152450629181E-04
 -6.00212331477993E-04 -1.68124006162260E-04  2.46481659835958E-04
  4.21678592669045E-04  5.51150221323067E-06 -2.12080153655268E-04
 -1.25363549601145E-04  3.04546299892915E-04  5.21578450370935E-04
  6.34512221051438E-04 -8.79325623265758E-05 -1.65139107261966E-04
 -7.05102293140537E-04  1.68786645516778E-04  2.25187159869314E-04
  3.25364041037743E-04  2.06189596614305E-04 -3.31898520029184E-04
 -3.97945238367378E-04 -6.77678364016966E-04  1.25170576751901E-04
  2.64039994307154E-04 -5.14566499717972E-04 -2.63836143756682E-04
 -2.37205047012152E-04 -3.31659186995553E-05  1.05865178807728E-04
  2.28991282967062E-04 -4.02139824690518E-05 -1.64735560754314E-04
  1.33698075875310E-04  6.11640466978219E-05 -8.80182108886103E-04
 -2.60248479371107E-04  1.27949841283986E-04  7.23570481253259E-04
 Reduced forces (fred)
 -5.54771758556535E-04  3.50745479483899E-03 -1.31655497597784E-03
 -5.00068915885229E-04  3.77775313663613E-03 -5.98959269278718E-03
  4.25161012946476E-04  1.75002320362355E-03  2.93044285787846E-03
  5.82650461452593E-04  4.39198153255172E-03  8.35067100447250E-03
 -3.87716021946186E-03 -4.69701085606637E-03  4.45527538611824E-03
  9.01139184892444E-04 -3.21774872037372E-03 -8.11556869092832E-03
  1.93596111879283E-03 -4.93061957022911E-03 -4.93693140139993E-03
 -2.96359627666283E-03 -5.82366505742374E-03  7.66837795861047E-03
  1.40772368397428E-03 -4.87819684449689E-04  9.74936268883679E-03
  8.92373600679670E-04 -3.39371963658389E-03 -2.38584501413825E-04
  1.50515817607993E-03  8.06526930746648E-04 -9.60038680854332E-03
 -8.83362658386054E-04 -3.04245907643002E-03 -1.20144931706211E-03
 -9.23586156154895E-03  4.30705335258204E-03  2.09391695837995E-03
  6.01535058643163E-03 -1.74114701650015E-03 -4.69742297795150E-03
  8.31178930232906E-03  2.28358583505466E-03 -3.43287908421431E-03
 -5.84939925499965E-03 -7.52652949337562E-05  2.92922264721100E-03
  1.86552595258735E-03 -4.14090057569758E-03 -6.95194385087092E-03
 -8.75748760628849E-03  1.19046979041122E-03  2.36864447187018E-03
  9.74287745499360E-03 -2.28827095095687E-03 -3.18555661662521E-03
 -4.56260248267988E-03 -2.79646690488140E-03  4.48671512989890E-03
  5.50507993324355E-03  9.20022816014232E-03 -1.76026510674885E-03
 -3.69497468872704E-03  6.98636112940017E-03  3.57881093127485E-03
  3.28691969102488E-03  4.50651519427401E-04 -1.46924879814349E-03
 -3.19008439869452E-03  5.46386341391370E-04  2.24822058865728E-03
 -2.08434070248756E-03 -8.17590648825823E-04  1.17006625700036E-02
  3.77600036495031E-03 -1.74579173345409E-03 -9.66393837054543E-03
 Total energy (etotal) [Ha]= -6.94337320576397E+02
 
 Difference of energy with previous step (new-old):
           Absolute (Ha)=-2.82969E-05
           Relative     =-4.07538E-08
 
--- Iteration: (  4/150) Internal Cycle: (1/1)
--------------------------------------------------------------------------------
 
---SELF-CONSISTENT-FIELD CONVERGENCE--------------------------------------------

--- !BeginCycle
iteration_state: {dtset: 1, itime: 4, icycle: 1, }
solver: {iscf: 7, nstep: 100, nline: 4, wfoptalg: 114, }
tolerances: {tolvrs: 1.00E-20, }
...
 
     iter   Etot(hartree)      deltaE(h)  residm     vres2
 ETOT  1  -694.33733258520    -6.943E+02 1.491E-10 1.009E-02
 ETOT  2  -694.33733273345    -1.482E-07 9.593E-12 3.865E-03
 ETOT  3  -694.33733301612    -2.827E-07 5.822E-10 2.319E-03
 ETOT  4  -694.33733340753    -3.914E-07 1.127E-10 4.218E-04
 ETOT  5  -694.33733351577    -1.082E-07 1.277E-11 4.251E-05
 ETOT  6  -694.33733352243    -6.651E-09 5.404E-12 6.936E-06
 ETOT  7  -694.33733352442    -1.991E-09 1.309E-12 1.247E-06
 ETOT  8  -694.33733352459    -1.766E-10 9.428E-14 2.321E-07
 ETOT  9  -694.33733352465    -5.650E-11 3.349E-14 4.061E-08
[...]
     3       -0.006272922534     -0.001479240947      0.001861793862
     4        0.008699244486     -0.034048260109      0.010221572224
     5        0.025178386996     -0.025665198599      0.008843817344
     6        0.009438125637      0.011429320073      0.005307424638
     7       -0.026566123203     -0.025393190024     -0.009814725452
     8       -0.008972094855      0.009720712155     -0.004419968351
     9        0.039132445368      0.025247347690     -0.055874501961
    10       -0.007975913312     -0.000165677961      0.005931053634
    11       -0.038506313124      0.028290047225      0.052507200851
    12        0.006633989130     -0.000542643943     -0.005867049304
    13        0.026659197954     -0.012171446496      0.011811943764
    14       -0.006961886379      0.018293374550      0.039382908642
    15       -0.026646801220     -0.015074338650     -0.010588146645
    16        0.006595398478      0.017629099286     -0.035904383314
    17       -0.001698654785     -0.027861048968      0.005618221634
    18       -0.017964745439     -0.001589420948      0.023626180620
    19        0.017598184784     -0.000301141413     -0.024881704877
    20       -0.000325439744     -0.025786231184     -0.004067156284
    21       -0.009329865932     -0.036795478928     -0.001665783374
    22        0.008400215124     -0.034761662286      0.000089005150
    23        0.021517610939      0.011045814042     -0.007017127700
    24       -0.019037256391      0.012995889264      0.007523877930
    25        0.057699021378      0.072272403008     -0.006492690034
    26       -0.056049943236      0.069373386967      0.006761463949
 
 Cartesian components of stress tensor (hartree/bohr^3)
  sigma(1 1)=  5.71975583E-05  sigma(3 2)=  3.49396810E-06
  sigma(2 2)=  9.32187618E-05  sigma(3 1)=  4.91858443E-05
  sigma(3 3)= -4.04299801E-05  sigma(2 1)= -1.49102337E-06
 
-Cartesian components of stress tensor (GPa)         [Pressure= -1.0786E+00 GPa]
- sigma(1 1)=  1.68280998E+00  sigma(3 2)=  1.02796073E-01
- sigma(2 2)=  2.74259020E+00  sigma(3 1)=  1.44709726E+00
- sigma(3 3)= -1.18949088E+00  sigma(2 1)= -4.38674146E-02
 
== END DATASET(S) ==============================================================
================================================================================
  
 -outvars: echo values of variables after computation  --------
-          iomode           1
            acell      1.0000000000E+00  1.0000000000E+00  1.0000000000E+00 Bohr
              amu      1.38905500E+02  9.59400000E+01  1.59994000E+01
        autoparal           1
           bandpp          26
     densfor_pred           6
           diemac      4.00000000E+00
          dilatmx      1.04000000E+00
             ecut      3.00000000E+01 Hartree
           ecutsm      5.00000000E-01 Hartree
           etotal1    -6.9435190217E+02
            fcart1    -1.5151336358E-05 -6.6217370720E-08 -1.9662057352E-05
                       5.5126921927E-07 -8.0319161886E-05 -6.7847004358E-06
                       4.1951897669E-05 -2.8711704819E-05  3.6820740599E-05
                      -3.6793188055E-05  1.5853319077E-05  2.4826112998E-05
                       4.6585433779E-05  4.4446857855E-06  3.9154844458E-05
                       9.4333938386E-05 -4.9679700671E-05 -1.0834594089E-04
                       3.1679548321E-05  4.1589161835E-05  8.0798079408E-07
                       5.5352671274E-05  4.5169743856E-05 -5.5792815505E-05
                      -1.3186641106E-04 -2.3844822220E-05 -1.0486342029E-04
                      -5.2607803060E-05 -2.8197232377E-05 -4.0939867213E-05
                       1.5589395596E-05 -8.5633690630E-06 -4.9521712801E-05
                       7.9064531030E-06 -9.1590847411E-06 -2.0023160622E-06
                       5.8345712200E-05  1.7502701339E-05 -5.1416866065E-05
                       2.8108823624E-05  4.6065242237E-06  6.9821618271E-05
                       4.4281682586E-05  7.4176576880E-06 -5.3119666679E-05
                       4.0950911952E-05 -3.9069555227E-05  1.9900238813E-05
                      -8.7642481279E-05  1.2557185896E-04  5.6511708579E-05
                       2.2208036496E-05 -6.1099278062E-05  4.9492274588E-05
                       1.6262015852E-05  2.9575878583E-05  1.1882505768E-05
                      -1.4845290089E-04 -2.3165773017E-05 -5.5572309796E-05
                       2.6751143254E-06 -8.2523207000E-05  4.6702240848E-05
                       1.2464354510E-05  9.7532961108E-05  1.1758295446E-04
                      -5.0906741059E-06  6.1433269724E-05 -6.9928819618E-07
                      -8.0561730562E-05 -4.1537420576E-05 -1.3690292823E-05
                       7.7241280161E-06  2.8018565161E-05  3.5016781792E-05
                       3.1195138458E-05 -2.7798003164E-06  5.3891252134E-05
-          fftalg         401
           ionmov           2
             iscf           7
              ixc     -116133
           jdtset        1
              kpt      2.50000000E-01  2.50000000E-01  2.50000000E-01
                      -2.50000000E-01  2.50000000E-01  2.50000000E-01
                       2.50000000E-01 -2.50000000E-01  2.50000000E-01
                      -2.50000000E-01 -2.50000000E-01  2.50000000E-01
         kptrlatt        2    0    0      0    2    0      0    0    2
          kptrlen      2.65094656E+01
P           mkmem           1
            natom          26
            nband         104
           ndtset           1
            ngfft          72      75      75
          ngfftdg          72      75      75
             nkpt           4
-           npfft          15
-           npkpt           4
            nstep         100
             nsym           1
            ntime         150
           ntypat           3
              occ      2.000000  2.000000  2.000000  2.000000  2.000000  2.000000
                       2.000000  2.000000  2.000000  2.000000  2.000000  2.000000
                       2.000000  2.000000  2.000000  2.000000  2.000000  2.000000
                       2.000000  2.000000  2.000000  2.000000  2.000000  2.000000
                       2.000000  2.000000  2.000000  2.000000  2.000000  2.000000
                       2.000000  2.000000  2.000000  2.000000  2.000000  2.000000
                       2.000000  2.000000  2.000000  2.000000  2.000000  2.000000
                       2.000000  2.000000  2.000000  2.000000  2.000000  2.000000
                       2.000000  2.000000  2.000000  2.000000  2.000000  2.000000
                       2.000000  2.000000  2.000000  2.000000  2.000000  2.000000
                       2.000000  2.000000  2.000000  2.000000  2.000000  2.000000
                       2.000000  2.000000  2.000000  2.000000  2.000000  2.000000
                       2.000000  2.000000  2.000000  2.000000  2.000000  2.000000
                       2.000000  2.000000  2.000000  2.000000  2.000000  2.000000
                       2.000000  2.000000  2.000000  2.000000  2.000000  2.000000
                       2.000000  2.000000  2.000000  2.000000  2.000000  2.000000
                       2.000000  2.000000  2.000000  2.000000  2.000000  2.000000
                       2.000000  2.000000
        paral_kgb           1
        pawecutdg      3.00000000E+01 Hartree
         pawmixdg           1
         pawxcdev           0
           prteig           0
            rprim      1.3729791650E+01  8.9808125004E-03 -2.8192424199E-01
                       8.9808125004E-03  1.3573727796E+01  1.5717417104E-02
                      -2.8192424199E-01  1.5717417104E-02  1.3251724915E+01
           shiftk      5.00000000E-01  5.00000000E-01  5.00000000E-01
          spgroup           1
           strten1     5.7197558344E-05  9.3218761801E-05 -4.0429980097E-05
                       3.4939680977E-06  4.9185844310E-05 -1.4910233664E-06
           tolmxf      1.00000000E-10
           tolvrs      1.00000000E-20
            typat      1  1  1  1  2  2  2  2  3  3  3  3  3  3  3  3  3  3  3  3
                       3  3  3  3  3  3
           useylm           1
         wfoptalg         114
              wtk        0.25000    0.25000    0.25000    0.25000
           xangst      6.3397634182E+00  6.2905627199E+00  5.7614107702E+00
                       2.3424450288E+00  4.5295634819E+00  7.8670556438E-01
                       6.9855239259E-01  2.6950945912E+00  4.6099081422E+00
                       4.8615548206E+00  9.5732038698E-01  2.5560834240E+00
                       1.4838584451E+00  1.2054167019E+00  1.3794448875E+00
                       4.8878758705E+00  2.4563807583E+00  6.0722333963E+00
                       5.7147333349E+00  4.8106256809E+00  1.9811598322E+00
                       2.1581815149E+00  6.0413276185E+00  4.3113292217E+00
                       2.8354056213E+00  2.2708477766E+00  1.9686371930E+00
                       5.7910315699E+00  1.3103408276E+00  4.7575952826E+00
                       4.3552100354E+00  5.8591970097E+00  1.3842040450E+00
                       1.2306622158E+00  4.8947015318E+00  5.6141536968E+00
                       7.4020780219E+00  1.3261242812E+00  2.3643655393E+00
                       3.2927557791E+00  2.4633635718E+00  5.3249633271E+00
                      -2.0295436944E-01  4.9337952709E+00  9.9855629948E-01
                       3.7384968512E+00  6.0282121304E+00  5.0890464372E+00
                       1.5144743453E+00  6.8546077604E+00  5.0141284579E-01
                       1.0091317285E+00  1.6520376747E-01  4.9021383777E+00
                       6.0250695539E+00  3.7629434341E+00  5.4690733555E+00
                       5.7203739290E+00  3.2780042386E+00  2.8739785990E+00
                       9.0463744237E-01  2.3634877469E+00  7.0648412715E+00
                       6.1240867962E+00  5.9690959009E+00  3.3085195350E+00
                       1.8001864042E+00  4.6050894454E+00  3.1683961567E+00
                       5.4041452940E+00  1.0038838347E+00  1.9181961904E-01
                       4.5058009918E+00  3.5568393118E+00  7.5354378213E+00
                       2.5637335326E+00  7.1521398271E+00  2.8659063396E+00
            xcart      1.1980416608E+01  1.1887440762E+01  1.0887488495E+01
                       4.4265795858E+00  8.5596344824E+00  1.4866580639E+00
                       1.3200727115E+00  5.0929906796E+00  8.7114638864E+00
                       9.1870071910E+00  1.8090733528E+00  4.8302976442E+00
                       2.8040860813E+00  2.2779074426E+00  2.6067730528E+00
                       9.2367467668E+00  4.6418869113E+00  1.1474858134E+01
                       1.0799280925E+01  9.0907650648E+00  3.7438495084E+00
                       4.0783720081E+00  1.1416454678E+01  8.1472314977E+00
                       5.3581400998E+00  4.2912803873E+00  3.7201851498E+00
                       1.0943463694E+01  2.4761853049E+00  8.9905521352E+00
                       8.2301542181E+00  1.1072277707E+01  2.6157665571E+00
                       2.3256145500E+00  9.2496453973E+00  1.0609212955E+01
                       1.3987900276E+01  2.5060117096E+00  4.4680033473E+00
                       6.2224066450E+00  4.6550825164E+00  1.0062722356E+01
                      -3.8352817572E-01  9.3235218577E+00  1.8869979343E+00
                       7.0647351975E+00  1.1391669997E+01  9.6169040439E+00
                       2.8619417478E+00  1.2953331416E+01  9.4753295805E-01
                       1.9069825988E+00  3.1218987664E-01  9.2636989993E+00
                       1.1385731388E+01  7.1109325440E+00  1.0335050843E+01
                       1.0809940103E+01  6.1945302733E+00  5.4310324640E+00
                       1.7095170156E+00  4.4663445600E+00  1.3350615175E+01
                       1.1572846859E+01  1.1279956514E+01  6.2521958264E+00
                       3.4018592921E+00  8.7023578693E+00  5.9874010167E+00
                       1.0212354588E+01  1.8970655169E+00  3.6248654691E-01
                       8.5147298838E+00  6.7214521979E+00  1.4239913774E+01
                       4.8447542544E+00  1.3515585537E+01  5.4157781044E+00
             xred      8.8925114660E-01  8.7420791205E-01  8.3947182206E-01
                       3.2442462172E-01  6.3025139501E-01  1.1834046627E-01
                       1.0943895548E-01  3.7437363713E-01  6.5926762368E-01
                       6.7681986246E-01  1.3239119639E-01  3.7874531470E-01
                       2.0825029794E-01  1.6744691674E-01  2.0094380499E-01
                       6.9060328998E-01  3.4049969830E-01  8.8020270885E-01
                       7.9225169884E-01  6.6886247024E-01  2.9857937008E-01
                       3.0923478302E-01  8.4014699403E-01  6.2038771491E-01
                       3.9597985459E-01  3.1554966483E-01  2.8878216752E-01
                       8.1122223096E-01  1.8108279757E-01  6.9548751222E-01
                       6.0320134240E-01  8.1507244430E-01  2.0925674375E-01
                       1.8544308578E-01  6.8038401514E-01  8.0372932921E-01
                       1.0260461150E+00  1.8352791545E-01  3.5877488147E-01
                       4.6877000488E-01  3.4174747153E-01  7.6891941705E-01
                      -2.5487138453E-02  6.8673352770E-01  1.4103966290E-01
                       5.2911927193E-01  8.3804174225E-01  7.3597239638E-01
                       2.0935994535E-01  9.5406916439E-01  7.4825059025E-02
                       1.5330000985E-01  2.2084936246E-02  7.0229128132E-01
                       8.4530113922E-01  5.2239224150E-01  7.9726610208E-01
                       7.9578878145E-01  4.5534169880E-01  4.2622585767E-01
                       1.4503947027E-01  3.2777767162E-01  1.0101593253E+00
                       8.5239759521E-01  8.2988375703E-01  4.8895247861E-01
                       2.5672732014E-01  6.4041927335E-01  4.5652267714E-01
                       7.4460237429E-01  1.3921761896E-01  4.3029859821E-02
                       6.4217522240E-01  4.9349670464E-01  1.0876472410E+00
                       3.6073871870E-01  9.9499713480E-01  4.1517918192E-01
            znucl       57.00000   42.00000    8.00000
 
================================================================================


- Timing analysis has been suppressed with timopt=0



================================================================================

 Suggested references for the acknowledgment of ABINIT usage.

 The users of ABINIT have little formal obligations with respect to the ABINIT group
 (those specified in the GNU General Public License, http://www.gnu.org/copyleft/gpl.txt).
 However, it is common practice in the scientific literature,
 to acknowledge the efforts of people that have made the research possible.
 In this spirit, please find below suggested citations of work written by ABINIT developers,
 corresponding to implementations inside of ABINIT that you have used in the present run.
 Note also that it will be of great value to readers of publications presenting these results,
 to read papers enabling them to understand the theoretical formalism and details
 of the ABINIT implementation.
 For information on why they are suggested, see also https://docs.abinit.org/theory/acknowledgments.
-
- [1] Implementation of the Projector Augmented-Wave Method in the ABINIT code.
- M. Torrent, F. Jollet, F. Bottin, G. Zerah, and X. Gonze Comput. Mat. Science 42, 337, (2008).
- Comment: PAW calculations. Strong suggestion to cite this paper.
- DOI and bibtex: see https://docs.abinit.org/theory/bibliography/#torrent2008
-
- [2] Libxc: A library of exchange and correlation functionals for density functional theory.
- M.A.L. Marques, M.J.T. Oliveira, T. Burnus, Computer Physics Communications 183, 2227 (2012).
- Comment: to be cited when LibXC is used (negative value of ixc)
- Strong suggestion to cite this paper.
- DOI and bibtex: see https://docs.abinit.org/theory/bibliography/#marques2012
-
- [3] Large scale ab initio calculations based on three levels of parallelization
- F. Bottin, S. Leroux, A. Knyazev, G. Zerah, Comput. Mat. Science 42, 329, (2008).
- Comment: in case LOBPCG algorithm is used (wfoptalg=4/14/114).
- Strong suggestion to cite this paper in your publications.
- This paper is also available at http://www.arxiv.org/abs/0707.3405
- DOI and bibtex: see https://docs.abinit.org/theory/bibliography/#bottin2008
-
- [4] The Abinit project: Impact, environment and recent developments.
- Computer Phys. Comm. 248, 107042 (2020).
- X.Gonze, B. Amadon, G. Antonius, F.Arnardi, L.Baguet, J.-M.Beuken,
- J.Bieder, F.Bottin, J.Bouchet, E.Bousquet, N.Brouwer, F.Bruneval,
- G.Brunin, T.Cavignac, J.-B. Charraud, Wei Chen, M.Cote, S.Cottenier,
- J.Denier, G.Geneste, Ph.Ghosez, M.Giantomassi, Y.Gillet, O.Gingras,
- D.R.Hamann, G.Hautier, Xu He, N.Helbig, N.Holzwarth, Y.Jia, F.Jollet,
- W.Lafargue-Dit-Hauret, K.Lejaeghere, M.A.L.Marques, A.Martin, C.Martins,
- H.P.C. Miranda, F.Naccarato, K. Persson, G.Petretto, V.Planes, Y.Pouillon,
- S.Prokhorenko, F.Ricci, G.-M.Rignanese, A.H.Romero, M.M.Schmitt, M.Torrent,
- M.J.van Setten, B.Van Troeye, M.J.Verstraete, G.Zerah and J.W.Zwanzig
- Comment: the fifth generic paper describing the ABINIT project.
- Note that a version of this paper, that is not formatted for Computer Phys. Comm. 
- is available at https://www.abinit.org/sites/default/files/ABINIT20.pdf .
- The licence allows the authors to put it on the Web.
- DOI and bibtex: see https://docs.abinit.org/theory/bibliography/#gonze2020
-
- [5] ABINIT: Overview, and focus on selected capabilities
- J. Chem. Phys. 152, 124102 (2020).
- A. Romero, D.C. Allan, B. Amadon, G. Antonius, T. Applencourt, L.Baguet,
- J.Bieder, F.Bottin, J.Bouchet, E.Bousquet, F.Bruneval,
- G.Brunin, D.Caliste, M.Cote,
- J.Denier, C. Dreyer, Ph.Ghosez, M.Giantomassi, Y.Gillet, O.Gingras,
- D.R.Hamann, G.Hautier, F.Jollet, G. Jomard,
- A.Martin, 
- H.P.C. Miranda, F.Naccarato, G.Petretto, N.A. Pike, V.Planes,
- S.Prokhorenko, T. Rangel, F.Ricci, G.-M.Rignanese, M.Royo, M.Stengel, M.Torrent,
- M.J.van Setten, B.Van Troeye, M.J.Verstraete, J.Wiktor, J.W.Zwanziger, and X.Gonze.
- Comment: a global overview of ABINIT, with focus on selected capabilities .
- Note that a version of this paper, that is not formatted for J. Chem. Phys 
- is available at https://www.abinit.org/sites/default/files/ABINIT20_JPC.pdf .
- The licence allows the authors to put it on the Web.
- DOI and bibtex: see https://docs.abinit.org/theory/bibliography/#romero2020
-
- [6] Recent developments in the ABINIT software package.
- Computer Phys. Comm. 205, 106 (2016).
- X.Gonze, F.Jollet, F.Abreu Araujo, D.Adams, B.Amadon, T.Applencourt,
- C.Audouze, J.-M.Beuken, J.Bieder, A.Bokhanchuk, E.Bousquet, F.Bruneval
- D.Caliste, M.Cote, F.Dahm, F.Da Pieve, M.Delaveau, M.Di Gennaro,
- B.Dorado, C.Espejo, G.Geneste, L.Genovese, A.Gerossier, M.Giantomassi,
- Y.Gillet, D.R.Hamann, L.He, G.Jomard, J.Laflamme Janssen, S.Le Roux,
- A.Levitt, A.Lherbier, F.Liu, I.Lukacevic, A.Martin, C.Martins,
- M.J.T.Oliveira, S.Ponce, Y.Pouillon, T.Rangel, G.-M.Rignanese,
- A.H.Romero, B.Rousseau, O.Rubel, A.A.Shukri, M.Stankovski, M.Torrent,
- M.J.Van Setten, B.Van Troeye, M.J.Verstraete, D.Waroquier, J.Wiktor,
- B.Xu, A.Zhou, J.W.Zwanziger.
- Comment: the fourth generic paper describing the ABINIT project.
- Note that a version of this paper, that is not formatted for Computer Phys. Comm. 
- is available at https://www.abinit.org/sites/default/files/ABINIT16.pdf .
- The licence allows the authors to put it on the Web.
- DOI and bibtex: see https://docs.abinit.org/theory/bibliography/#gonze2016
-
- Proc.   0 individual time (sec): cpu=      29271.5  wall=      29856.4
 
================================================================================
 
 Calculation completed.
.Delivered   1 WARNINGs and   0 COMMENTs to log file.
+Overall time at end (sec) : cpu=    1779921.2  wall=    1791358.4
