
.Version 9.3.2 of ABINIT 
.(MPI version, prepared for a x86_64_linux_intel19.1 computer) 

.Copyright (C) 1998-2020 ABINIT group . 
 ABINIT comes with ABSOLUTELY NO WARRANTY.
 It is free software, and you are welcome to redistribute it
 under certain conditions (GNU General Public License,
 see ~abinit/COPYING or http://www.gnu.org/copyleft/gpl.txt).

 ABINIT is a project of the Universite Catholique de Louvain,
 Corning Inc. and other collaborators, see ~abinit/doc/developers/contributors.txt .
 Please read https://docs.abinit.org/theory/acknowledgments for suggested
 acknowledgments of the ABINIT effort.
 For more information, see https://www.abinit.org .

.Starting date : Tue 23 Aug 2022.
- ( at 12h23 )
  
- input  file    -> abi.in
- output file    -> abi.out
- root for input  files -> abi-i
- root for output files -> abi-o
 
- inpspheads : Reading pseudopotential header in XML form from 
-   ~/ABINIT_PAW_PBE/paw_pbe_standard/La.xml
- inpspheads : Reading pseudopotential header in XML form from 
-   ~/ABINIT_PAW_PBE/paw_pbe_standard/Mo.xml
- inpspheads : Reading pseudopotential header in XML form from 
-   ~/ABINIT_PAW_PBE/paw_pbe_standard/O.xml
 
 DATASET    1 : space group P1 (#  1); Bravais aP (primitive triclinic)
================================================================================
 Values of the parameters that define the memory need for DATASET  1.
     intxc =       0    ionmov =       0      iscf =       7    lmnmax =      32
     lnmax =       8     mgfft =     144  mpssoang =       4    mqgrid =    6715
     natom =     104  nloc_mem =       2    nspden =       1   nspinor =       1
    nsppol =       1      nsym =       1    n1xccc =       1    ntypat =       3
    occopt =       1   xclevel =       2
-    mband =         420        mffmem =           1         mkmem =           1
       mpw =        1299          nfft =      248832          nkpt =           1
Pmy_natom=        11
 PAW method is used; the additional fine FFT grid is defined by:
   mgfftf=       144    nfftf =    248832
================================================================================
P This job should need less than                     172.630 Mbytes of memory.
  Rough estimation (10% accuracy) of disk space for files :
_ WF disk file :     49.951 Mbytes ; DEN or POT disk file :      1.900 Mbytes.
================================================================================
 
--------------------------------------------------------------------------------
------------- Echo of variables that govern the present computation ------------
--------------------------------------------------------------------------------
-
- outvars: echo of selected default values                                      
-   iomode0 =  0 , fftalg0 =512 , wfoptalg0 = 10
-
- outvars: echo of global parameters not present in the input file              
-  max_nthreads =    1
-
 -outvars: echo values of preprocessed input variables --------
-          iomode           1
            acell      1.0000000000E+00  1.0000000000E+00  1.0000000000E+00 Bohr
              amu      1.38905500E+02  9.59400000E+01  1.59994000E+01
        autoparal           1
           bandpp          14
     densfor_pred           6
           diemac      4.00000000E+00
             ecut      3.00000000E+01 Hartree
           ecutsm      5.00000000E-01 Hartree
-          fftalg         401
           irdden           1
           irdwfk           1
             iscf           7
           istwfk        1
              ixc     -116133
           jdtset        1
              kpt      5.00000000E-01  5.00000000E-01  5.00000000E-01
         kptrlatt        1    0    0      0    1    0      0    0    1
          kptrlen      1.35683545E+01
P           mkmem           1
            natom         104
            nband         420
           ndtset           1
            ngfft         144     144      72
          ngfftdg         144     144      72
             nkpt           1
-          npband          10
-           npfft           6
            nstep         100
             nsym           1
           ntypat           3
              occ      2.000000  2.000000  2.000000  2.000000  2.000000  2.000000
                       2.000000  2.000000  2.000000  2.000000  2.000000  2.000000
                       2.000000  2.000000  2.000000  2.000000  2.000000  2.000000
                       2.000000  2.000000  2.000000  2.000000  2.000000  2.000000
                       2.000000  2.000000  2.000000  2.000000  2.000000  2.000000
                       2.000000  2.000000  2.000000  2.000000  2.000000  2.000000
                       2.000000  2.000000  2.000000  2.000000  2.000000  2.000000
                       2.000000  2.000000  2.000000  2.000000  2.000000  2.000000
                       2.000000  2.000000  2.000000  2.000000  2.000000  2.000000
                       2.000000  2.000000  2.000000  2.000000  2.000000  2.000000
                       2.000000  2.000000  2.000000  2.000000  2.000000  2.000000
                       2.000000  2.000000  2.000000  2.000000  2.000000  2.000000
                       2.000000  2.000000  2.000000  2.000000  2.000000  2.000000
                       2.000000  2.000000  2.000000  2.000000  2.000000  2.000000
                       2.000000  2.000000  2.000000  2.000000  2.000000  2.000000
                       2.000000  2.000000  2.000000  2.000000  2.000000  2.000000
                       2.000000  2.000000  2.000000  2.000000  2.000000  2.000000
                       2.000000  2.000000  2.000000  2.000000  2.000000  2.000000
                       2.000000  2.000000  2.000000  2.000000  2.000000  2.000000
                       2.000000  2.000000  2.000000  2.000000  2.000000  2.000000
                       2.000000  2.000000  2.000000  2.000000  2.000000  2.000000
                       2.000000  2.000000  2.000000  2.000000  2.000000  2.000000
                       2.000000  2.000000  2.000000  2.000000  2.000000  2.000000
                       2.000000  2.000000  2.000000  2.000000  2.000000  2.000000
                       2.000000  2.000000  2.000000  2.000000  2.000000  2.000000
                       2.000000  2.000000  2.000000  2.000000  2.000000  2.000000
                       2.000000  2.000000  2.000000  2.000000  2.000000  2.000000
                       2.000000  2.000000  2.000000  2.000000  2.000000  2.000000
                       2.000000  2.000000  2.000000  2.000000  2.000000  2.000000
                       2.000000  2.000000  2.000000  2.000000  2.000000  2.000000
                       2.000000  2.000000  2.000000  2.000000  2.000000  2.000000
                       2.000000  2.000000  2.000000  2.000000  2.000000  2.000000
                       2.000000  2.000000  2.000000  2.000000  2.000000  2.000000
                       2.000000  2.000000  2.000000  2.000000  2.000000  2.000000
                       2.000000  2.000000  2.000000  2.000000  2.000000  2.000000
                       2.000000  2.000000  2.000000  2.000000  2.000000  2.000000
                       2.000000  2.000000  2.000000  2.000000  2.000000  2.000000
                       2.000000  2.000000  2.000000  2.000000  2.000000  2.000000
                       2.000000  2.000000  2.000000  2.000000  2.000000  2.000000
                       2.000000  2.000000  2.000000  2.000000  2.000000  2.000000
                       2.000000  2.000000  2.000000  2.000000  2.000000  2.000000
                       2.000000  2.000000  2.000000  2.000000  2.000000  2.000000
                       2.000000  2.000000  2.000000  2.000000  2.000000  2.000000
                       2.000000  2.000000  2.000000  2.000000  2.000000  2.000000
                       2.000000  2.000000  2.000000  2.000000  2.000000  2.000000
                       2.000000  2.000000  2.000000  2.000000  2.000000  2.000000
                       2.000000  2.000000  2.000000  2.000000  2.000000  2.000000
                       2.000000  2.000000  2.000000  2.000000  2.000000  2.000000
                       2.000000  2.000000  2.000000  2.000000  2.000000  2.000000
                       2.000000  2.000000  2.000000  2.000000  2.000000  2.000000
                       2.000000  2.000000  2.000000  2.000000  2.000000  2.000000
                       2.000000  2.000000  2.000000  2.000000  2.000000  2.000000
                       2.000000  2.000000  2.000000  2.000000  2.000000  2.000000
                       2.000000  2.000000  2.000000  2.000000  2.000000  2.000000
                       2.000000  2.000000  2.000000  2.000000  2.000000  2.000000
                       2.000000  2.000000  2.000000  2.000000  2.000000  2.000000
                       2.000000  2.000000  2.000000  2.000000  2.000000  2.000000
                       2.000000  2.000000  2.000000  2.000000  2.000000  2.000000
                       2.000000  2.000000  2.000000  2.000000  2.000000  2.000000
                       2.000000  2.000000  2.000000  2.000000  2.000000  2.000000
                       2.000000  2.000000  2.000000  2.000000  2.000000  2.000000
                       2.000000  2.000000  2.000000  2.000000  2.000000  2.000000
                       2.000000  2.000000  2.000000  2.000000  2.000000  2.000000
                       2.000000  2.000000  2.000000  2.000000  2.000000  2.000000
                       2.000000  2.000000  2.000000  2.000000  2.000000  2.000000
                       2.000000  2.000000  2.000000  2.000000  2.000000  2.000000
                       2.000000  2.000000  2.000000  2.000000  2.000000  2.000000
                       2.000000  2.000000  2.000000  2.000000  2.000000  2.000000
                       2.000000  2.000000  2.000000  2.000000  2.000000  2.000000
                       2.000000  2.000000  0.000000  0.000000  0.000000  0.000000
        paral_kgb           1
        pawecutdg      3.00000000E+01 Hartree
         pawmixdg           1
         pawxcdev           0
           prteig           0
            rprim      2.6799372194E+01 -6.6226992639E-01  6.6035734202E-02
                      -6.5861402325E-01  2.7255655769E+01 -7.4161612080E-02
                       2.7111043756E-02 -3.6915211591E-02  1.3568277154E+01
           shiftk      5.00000000E-01  5.00000000E-01  5.00000000E-01
          spgroup           1
           tolvrs      1.00000000E-20
            typat      1  1  1  1  1  1  1  1  1  1  1  1  1  1  1  1  2  2  2  2
                       2  2  2  2  2  2  2  2  2  2  2  2  3  3  3  3  3  3  3  3
                       3  3  3  3  3  3  3  3  3  3  3  3  3  3  3  3  3  3  3  3
                       3  3  3  3  3  3  3  3  3  3  3  3  3  3  3  3  3  3  3  3
                       3  3  3  3  3  3  3  3  3  3  3  3  3  3  3  3  3  3  3  3
                       3  3  3  3
           useylm           1
         wfoptalg         114
           xangst      5.9465674855E+00  6.1404455747E+00  5.9573664857E+00
                       1.9802715744E+00  4.3052549277E+00  8.0687188516E-01
                       1.4314532511E+00  2.3914197306E+00  4.2687305394E+00
                       4.5818314198E+00  7.4573726517E-01  2.3831374381E+00
                       1.2799030734E+01  5.9773768788E+00  6.3223302159E+00
                       9.5808408893E+00  4.6201774275E+00  1.2363769878E+00
                       7.9886313901E+00  2.6797023454E+00  5.1087835203E+00
                       1.1754639438E+01  7.9763853416E-01  2.6992154711E+00
                       5.8239100850E+00  1.3380534833E+01  6.0214533714E+00
                       2.3655531111E+00  1.1864738705E+01  9.9380819763E-01
                       1.1488542276E+00  9.6259207703E+00  4.3983688212E+00
                       4.4173394675E+00  8.0856750591E+00  2.4145889712E+00
                       1.2546751332E+01  1.3219103723E+01  6.1751974697E+00
                       9.0401283407E+00  1.1533874967E+01  1.4173756832E+00
                       7.6569057694E+00  9.6494146269E+00  4.6882560465E+00
                       1.1283389237E+01  7.9734377226E+00  2.5011058731E+00
                       1.2912938200E+00  8.8759619974E-01  1.1088069574E+00
                       4.5741112326E+00  2.3431350453E+00  5.6366764072E+00
                       5.5727065260E+00  4.5717196330E+00  2.2192218170E+00
                       2.1176016391E+00  5.7290848595E+00  4.6752772193E+00
                       8.4851349186E+00  1.1672439565E+00  1.3233552326E+00
                       1.1992614918E+01  2.1166612037E+00  5.9486601187E+00
                       1.2930334592E+01  4.4851321245E+00  2.3429374993E+00
                       9.3584987114E+00  5.8864045564E+00  5.0833367147E+00
                       9.9635405195E-01  7.8632590090E+00  1.2658108961E+00
                       4.3204398277E+00  9.4587756690E+00  5.8201160017E+00
                       5.7076615107E+00  1.2037739496E+01  2.1278540553E+00
                       1.6439026395E+00  1.2899083921E+01  4.9616988018E+00
                       7.9156055026E+00  8.2409538338E+00  1.4197791946E+00
                       1.1698812743E+01  9.4255009329E+00  5.9426756462E+00
                       1.2620560879E+01  1.1616322371E+01  2.3517532546E+00
                       9.2524147275E+00  1.3227038657E+01  5.1270290920E+00
                       8.9080908853E-01  4.9659722015E+00  5.7476635597E+00
                       2.4368856787E+00  2.1654053274E+00  1.9999081600E+00
                       4.5281305536E+00  4.9371429320E+00  8.2697949256E-01
                       6.0396552401E+00  1.2291695964E+00  5.0089364344E+00
                       8.1519126509E+00  4.8840811656E+00  6.2143313021E+00
                       8.7343492692E+00  1.9248388370E+00  2.8952575319E+00
                       1.1751925338E+01  5.7568582552E+00  1.5344038028E+00
                       1.3198707522E+01  1.7341843977E+00  4.6690662183E+00
                       5.9062771232E-01  1.1701041086E+01  5.7386737312E+00
                       1.9570476045E+00  9.2903591822E+00  1.8451337362E+00
                       4.5543140749E+00  1.3078458607E+01  9.6500476093E-01
                       5.6195298810E+00  8.3371435597E+00  4.9698584015E+00
                       7.8488280162E+00  1.2072118698E+01  5.3614851340E+00
                       9.0863158329E+00  9.2734269097E+00  2.5908600379E+00
                       1.2048438064E+01  1.3073477484E+01  1.4852406184E+00
                       1.2827837882E+01  8.9760633088E+00  4.6251595820E+00
                       1.1067044944E+00  2.0549638440E+00  6.9312893735E+00
                       1.4122795255E+01  6.4969031676E-01  2.2853748010E+00
                       2.2357741629E+00  1.4110459468E+01  1.7981380856E+00
                       5.4860657355E+00  5.9221393496E+00  3.3869656342E+00
                       5.0656833896E+00  3.0765479086E+00  2.9974009926E+00
                       7.2102547498E+00  4.2451193597E+00  1.6933834945E+00
                       4.4536088543E+00  1.6851491278E+00  6.3650257066E-02
                       5.8249837069E+00  3.7146936935E+00  5.5983174374E+00
                       3.5120388439E+00  1.2800493126E+00  4.4987777372E+00
                       3.5335901915E+00  6.2939528454E+00  5.5412905574E+00
                       2.4890514791E+00  4.6714580774E+00  3.2993598315E+00
                       1.3609701508E+00  7.1851898957E+00  4.0274501563E+00
                       7.8871202486E-03  5.8387287266E+00  1.0710023071E+00
                       1.2937036133E+01  5.1243577885E+00  3.9606118557E+00
                       1.1593320842E+01  3.2207199070E+00  2.2433510011E+00
                       6.8120271289E+00  6.9257599192E-01  1.0480234890E+00
                       9.0149131149E+00  2.4124483448E+00  7.3517481992E+00
                       9.2825369806E+00  1.4258968241E+01  1.3016054177E+00
                       1.0564522409E+01  5.3182790637E+00  6.3935188725E+00
                       9.1372177751E+00  4.7487180708E+00  3.7295628347E+00
                       8.1192968650E+00  7.2083799044E+00  5.0766546012E+00
                       1.2004540454E+01  9.6272544336E-01  1.3416937540E-01
                       1.2573058068E+01  3.5820116377E+00  6.7376219112E+00
                       1.0497740651E+01  2.5468274693E+00  5.1402126661E+00
                       4.4720303259E+00  8.4835601603E+00  1.0931792961E-01
                       5.3775331494E+00  1.0890374173E+01  5.7761647011E+00
                       3.3576055385E+00  9.0606037742E+00  4.2302910934E+00
                       2.4138832292E+00  6.7234610803E+00  1.4069410182E+00
                       5.6346405084E-01  8.1136777122E+00  6.7413307925E+00
                       1.3729075599E+01  7.8484439964E+00  2.3072868491E+00
                       5.3547135775E+00  1.3206882710E+01  3.4774024222E+00
                       4.5481529376E+00  1.0680934949E+01  2.0460733164E+00
                       6.9460747563E+00  1.2381046459E+01  7.4274517232E-01
                       1.0190000059E+00 -9.2093886133E-02  4.6011018555E+00
                       3.0925569697E+00  1.3144779093E+01  5.9536579140E+00
                       2.1316116650E+00  1.1912694192E+01  3.5513979155E+00
                       9.2643545030E+00  6.9746893637E+00  1.5115831220E+00
                       6.6588285287E+00  8.7065307373E+00  2.6594762196E+00
                       8.0444884348E+00  9.4510994683E+00  7.3013648435E+00
                       1.1657115823E+01  8.1398601402E+00 -2.0988600542E-02
                       1.2296142425E+01  1.0853238382E+01  6.7695027111E+00
                       1.0113482396E+01  9.7709605101E+00  5.2890135563E+00
                       8.5500967160E+00  2.2604147067E-01  5.5729935880E+00
                       1.0197328236E+01  1.2509258500E+01  6.4980922297E+00
                       9.5857896437E+00  1.2694479311E+01  3.4339752502E+00
                       3.8471998401E-02  1.1395595647E+01  1.8730358404E+00
                       1.2661087728E+01  1.2032792929E+01  4.0481611178E+00
                       1.1372717363E+01  1.0378688037E+01  2.1226295346E+00
                       8.6560073725E-01 -5.8475874212E-01  8.2752074594E-02
                       3.1300577631E+00  3.5299124499E+00  5.6836801928E+00
                       1.4336837419E+01  3.3392624904E+00  2.3924651832E+00
                       1.0774493919E+01  6.9570023861E+00  4.5519530989E+00
                       2.6927553480E+00  1.0220739096E+01  6.3097769011E+00
                       7.1600359171E+00  1.1260869633E+01  2.9312036377E+00
                       6.7054040354E+00  7.0047037938E+00  8.1970102321E-01
                       1.0921009561E+01  1.4394777997E+01  4.8281142277E+00
            xcart      1.1237383978E+01  1.1603760470E+01  1.1257791131E+01
                       3.7421709444E+00  8.1357527456E+00  1.5247668873E+00
                       2.7050546166E+00  4.5191283596E+00  8.0667316546E+00
                       8.6584065705E+00  1.4092391983E+00  4.5034770950E+00
                       2.4186662853E+01  1.1295605294E+01  1.1947472630E+01
                       1.8105165404E+01  8.7308700233E+00  2.3364139039E+00
                       1.5096325504E+01  5.0639035505E+00  9.6542017255E+00
                       2.2213049329E+01  1.5073183826E+00  5.1007780141E+00
                       1.1005595083E+01  2.5285546346E+01  1.1378897794E+01
                       4.4702475327E+00  2.2421106791E+01  1.8780253221E+00
                       2.1710198567E+00  1.8190354033E+01  8.3117125035E+00
                       8.3475618295E+00  1.5279711461E+01  4.5629118791E+00
                       2.3709923876E+01  2.4980485759E+01  1.1669432034E+01
                       1.7083366770E+01  2.1795864938E+01  2.6784518686E+00
                       1.4469454930E+01  1.8234750987E+01  8.8595199687E+00
                       2.1322515508E+01  1.5067613633E+01  4.7264051296E+00
                       2.4401916769E+00  1.6773137341E+00  2.0953414837E+00
                       8.6438175311E+00  4.4278835279E+00  1.0651774709E+01
                       1.0530889153E+01  8.6392980626E+00  4.1937214622E+00
                       4.0016871565E+00  1.0826401377E+01  8.8349935397E+00
                       1.6034581197E+01  2.2057714080E+00  2.5007789660E+00
                       2.2662757812E+01  3.9999099911E+00  1.1241338482E+01
                       2.4434791186E+01  8.4756713850E+00  4.4275102201E+00
                       1.7684999580E+01  1.1123692519E+01  9.6061142319E+00
                       1.8828362896E+00  1.4859406039E+01  2.3920359296E+00
                       8.1644480480E+00  1.7874495567E+01  1.0998425305E+01
                       1.0785917115E+01  2.2748030906E+01  4.0210614153E+00
                       3.1065257777E+00  2.4375735976E+01  9.3762518892E+00
                       1.4958326576E+01  1.5573145820E+01  2.6829938469E+00
                       2.2107552164E+01  1.7811615428E+01  1.1230029468E+01
                       2.3849403704E+01  2.1951667952E+01  4.4441695833E+00
                       1.7484529903E+01  2.4995480612E+01  9.6886808592E+00
                       1.6833852140E+00  9.3843274443E+00  1.0861510032E+01
                       4.6050465498E+00  4.0920230355E+00  3.7792787132E+00
                       8.5569266403E+00  9.3298480204E+00  1.5627647584E+00
                       1.1413294341E+01  2.3227939081E+00  9.4655180781E+00
                       1.5404882369E+01  9.2295758138E+00  1.1743384260E+01
                       1.6505528068E+01  3.6374182519E+00  5.4712438195E+00
                       2.2207920423E+01  1.0878885488E+01  2.8996029645E+00
                       2.4941942524E+01  3.2771335755E+00  8.8232564488E+00
                       1.1161246228E+00  2.2111763123E+01  1.0844521718E+01
                       3.6982840016E+00  1.7556234530E+01  3.4867974400E+00
                       8.6064063247E+00  2.4714705007E+01  1.8235947151E+00
                       1.0619372471E+01  1.5754918058E+01  9.3916712980E+00
                       1.4832135415E+01  2.2812998184E+01  1.0131738569E+01
                       1.7170648481E+01  1.7524237173E+01  4.8960159203E+00
                       2.2768248270E+01  2.4705292050E+01  2.8066980103E+00
                       2.4241100475E+01  1.6962301405E+01  8.7402849308E+00
                       2.0913684045E+00  3.8833188781E+00  1.3098238664E+01
                       2.6688215263E+01  1.2277367699E+00  4.3187324848E+00
                       4.2250008628E+00  2.6664904003E+01  3.3979885308E+00
                       1.0367161787E+01  1.1191221491E+01  6.4004374702E+00
                       9.5727542823E+00  5.8138329819E+00  5.6642669865E+00
                       1.3625406826E+01  8.0221129912E+00  3.2000310426E+00
                       8.4161010376E+00  3.1844703446E+00  1.2028155414E-01
                       1.1007623935E+01  7.0197537482E+00  1.0579286762E+01
                       6.6367915830E+00  2.4189426373E+00  8.5014578560E+00
                       6.6775177277E+00  1.1893847171E+01  1.0471521576E+01
                       4.7036256262E+00  8.8277764075E+00  6.2348864953E+00
                       2.5718608601E+00  1.3578041116E+01  7.6107778092E+00
                       1.4904497247E-02  1.1033598258E+01  2.0239010480E+00
                       2.4447455263E+01  9.6836328271E+00  7.4844717259E+00
                       2.1908201361E+01  6.0862785749E+00  4.2393190120E+00
                       1.2872865683E+01  1.3087789509E+00  1.9804773751E+00
                       1.7035716899E+01  4.5588666814E+00  1.3892790694E+01
                       1.7541452712E+01  2.6945544914E+01  2.4596777725E+00
                       1.9964054078E+01  1.0050090929E+01  1.2081999694E+01
                       1.7266839211E+01  8.9737766361E+00  7.0478523529E+00
                       1.5343247467E+01  1.3621863881E+01  9.5934868675E+00
                       2.2685293809E+01  1.8192874291E+00  2.5354337493E-01
                       2.3759636402E+01  6.7690210001E+00  1.2732260199E+01
                       1.9837854845E+01  4.8128064246E+00  9.7135942037E+00
                       8.4509125738E+00  1.6031605335E+01  2.0658094838E-01
                       1.0162064923E+01  2.0579824671E+01  1.0915369384E+01
                       6.3449549301E+00  1.7122059732E+01  7.9940916289E+00
                       4.5615782200E+00  1.2705500107E+01  2.6587332095E+00
                       1.0647927418E+00  1.5332628807E+01  1.2739268969E+01
                       2.5944192941E+01  1.4831409723E+01  4.3601402549E+00
                       1.0118942181E+01  2.4957391391E+01  6.5713382319E+00
                       8.5947634625E+00  2.0184041897E+01  3.8665182158E+00
                       1.3126178988E+01  2.3396787046E+01  1.4035849622E+00
                       1.9256309407E+00 -1.7403222331E-01  8.6948224164E+00
                       5.8440857231E+00  2.4840032563E+01  1.1250782946E+01
                       4.0281622686E+00  2.2511729528E+01  6.7111694493E+00
                       1.7507092809E+01  1.3180252759E+01  2.8564781276E+00
                       1.2583362285E+01  1.6452958661E+01  5.0256817119E+00
                       1.5201880021E+01  1.7859989650E+01  1.3797579951E+01
                       2.2028756405E+01  1.5382106425E+01 -3.9662706937E-02
                       2.3236341673E+01  2.0509648197E+01  1.2792506180E+01
                       1.9111711979E+01  1.8464439419E+01  9.9947871345E+00
                       1.6157341203E+01  4.2715647423E-01  1.0531431622E+01
                       1.9270157652E+01  2.3639072691E+01  1.2279614700E+01
                       1.8114517194E+01  2.3989089297E+01  6.4892727699E+00
                       7.2701540762E-02  2.1534554894E+01  3.5395247754E+00
                       2.3925988351E+01  2.2738683250E+01  7.6499158545E+00
                       2.1491321203E+01  1.9612878009E+01  4.0111885020E+00
                       1.6357483338E+00 -1.1050338764E+00  1.5637875791E-01
                       5.9149519523E+00  6.6705678033E+00  1.0740598991E+01
                       2.7092696333E+01  6.3102915928E+00  4.5211039787E+00
                       2.0360842728E+01  1.3146829216E+01  8.6019447266E+00
                       5.0885701506E+00  1.9314397767E+01  1.1923750303E+01
                       1.3530506985E+01  2.1279959624E+01  5.5391721150E+00
                       1.2671377237E+01  1.3236971812E+01  1.5490104447E+00
                       2.0637717166E+01  2.7202188157E+01  9.1238136286E+00
             xred      4.2922227840E-01  4.3729131919E-01  8.3001527935E-01
                       1.4694920571E-01  3.0222188990E-01  1.1331403639E-01
                       1.0449235736E-01  1.6914995763E-01  5.9494479418E-01
                       3.2422322411E-01  6.0030438248E-02  3.3066237368E-01
                       9.1237887549E-01  4.3779083458E-01  8.7849696464E-01
                       6.8369535532E-01  3.3717635902E-01  1.7071225000E-01
                       5.6751932178E-01  2.0054403624E-01  7.0986151966E-01
                       8.3035525380E-01  7.5983551692E-02  3.7230813468E-01
                       4.3290054857E-01  9.3937617602E-01  8.4166739893E-01
                       1.8699343962E-01  8.2735818205E-01  1.4202505357E-01
                       9.6867278553E-02  6.7058514574E-01  6.1577806692E-01
                       3.2512445256E-01  5.6896456436E-01  3.3782014655E-01
                       9.0694308896E-01  9.3972798889E-01  8.6077495262E-01
                       6.5730491076E-01  8.1592283825E-01  1.9866607814E-01
                       5.5605171218E-01  6.8342327043E-01  6.5398755911E-01
                       8.0936427387E-01  5.7296220310E-01  3.4753490902E-01
                       9.2470683971E-02  6.3995942585E-02  1.5432918511E-01
                       3.2595780203E-01  1.7144008310E-01  7.8440055425E-01
                       4.0067969951E-01  3.2712696876E-01  3.0892076422E-01
                       1.5853829862E-01  4.0195277644E-01  6.5257613125E-01
                       6.0048878278E-01  9.5766265852E-02  1.8191163116E-01
                       8.4895125176E-01  1.6850119828E-01  8.2529075404E-01
                       9.1964210729E-01  3.3375350848E-01  3.2366177569E-01
                       6.6964159109E-01  4.2535307070E-01  7.0704914991E-01
                       8.3529948475E-02  5.4745807640E-01  1.7888198436E-01
                       3.2016380679E-01  6.6468884809E-01  8.1267336482E-01
                       4.2294045157E-01  8.4529855069E-01  2.9891937564E-01
                       1.3729859178E-01  8.9861464086E-01  6.9528561950E-01
                       5.7234941100E-01  5.8554858102E-01  1.9815511797E-01
                       8.4068092707E-01  6.7504931775E-01  8.2726621104E-01
                       9.0994005589E-01  8.2795251392E-01  3.2763800934E-01
                       6.7466338651E-01  9.3443788048E-01  7.1589253939E-01
                       7.0533386691E-02  3.4710769537E-01  8.0206162145E-01
                       1.7535600825E-01  1.5477294288E-01  2.7853036304E-01
                       3.2779101616E-01  3.5042993874E-01  1.1549788300E-01
                       4.2754788870E-01  9.6553960812E-02  6.9606812492E-01
                       5.8264663110E-01  3.5395817298E-01  8.6460194893E-01
                       6.1914947918E-01  1.4904307618E-01  4.0103920654E-01
                       8.3877592017E-01  4.1981028123E-01  2.1191692618E-01
                       9.3357116315E-01  1.4379681170E-01  6.4652803710E-01
                       6.0835344970E-02  8.1383881204E-01  8.0340782298E-01
                       1.5366652199E-01  6.4821749695E-01  2.5977674048E-01
                       3.4349707311E-01  9.1530643853E-01  1.3773246327E-01
                       4.1002679175E-01  5.8894431649E-01  6.9340210486E-01
                       5.7363091750E-01  8.5195275236E-01  7.4858734860E-01
                       6.5655063504E-01  6.5940026344E-01  3.6125163483E-01
                       8.7217516706E-01  9.2790187687E-01  2.0768428813E-01
                       9.1975427563E-01  6.4556038767E-01  6.4322271591E-01
                       8.0642760158E-02  1.4574506969E-01  9.6576167340E-01
                       9.9724775554E-01  6.9701820936E-02  3.1382375583E-01
                       1.8155504969E-01  9.8308231242E-01  2.5492598211E-01
                       3.9670932321E-01  4.2088062606E-01  4.7209042032E-01
                       3.6225130535E-01  2.2267421470E-01  4.1691802653E-01
                       5.1573399154E-01  3.0717821727E-01  2.3501546773E-01
                       3.1709385669E-01  1.2455277208E-01  8.0024207674E-03
                       4.1655786254E-01  2.6872917689E-01  7.7914891674E-01
                       2.4936496145E-01  9.5656989124E-02  6.2587790904E-01
                       2.5928996847E-01  4.4372808483E-01  7.7292840087E-01
                       1.8313121180E-01  3.2896128079E-01  4.6042614839E-01
                       1.0772355803E-01  5.0155357820E-01  5.6314152050E-01
                       1.0363000078E-02  4.0527543323E-01  1.5132891051E-01
                       9.2098399225E-01  3.7841124804E-01  5.4920144802E-01
                       8.2316568538E-01  2.4372452119E-01  3.0976929623E-01
                       4.8166895350E-01  5.9917386076E-02  1.4394705827E-01
                       6.3916857834E-01  1.8417789297E-01  1.0218129760E+00
                       6.7906926652E-01  1.0053709658E+00  1.8347169934E-01
                       7.5358709309E-01  3.8824908596E-01  8.8891382885E-01
                       6.5227413864E-01  3.4579560058E-01  5.1815154060E-01
                       5.8446243197E-01  5.1494030397E-01  7.0702272338E-01
                       8.4861846681E-01  8.7389454921E-02  1.5033977561E-02
                       8.9229538890E-01  2.7130136045E-01  9.3552459317E-01
                       7.4432195879E-01  1.9563213008E-01  7.1335149195E-01
                       3.2997576605E-01  5.9623446827E-01  1.6878227291E-02
                       3.9719463581E-01  7.6581005842E-01  8.0672983966E-01
                       2.5176784798E-01  6.3512067344E-01  5.9142125683E-01
                       1.8158342448E-01  4.7084001393E-01  1.9764192895E-01
                       5.2667152136E-02  5.6510373835E-01  9.4173342086E-01
                       9.8173617189E-01  5.6844660588E-01  3.1967710075E-01
                       3.9984664718E-01  9.2605335451E-01  4.8743194141E-01
                       3.3882821766E-01  7.4916735560E-01  2.8741326996E-01
                       5.1109232452E-01  8.7098145693E-01  1.0571924335E-01
                       7.1112544914E-02 -3.7898211655E-03  6.4045311646E-01
                       2.3979381245E-01  9.1832657491E-01  8.3304994710E-01
                       1.7022043733E-01  8.3075812655E-01  4.9833439449E-01
                       6.6534116739E-01  5.0002983951E-01  2.1002112662E-01
                       4.8430048875E-01  6.1592379540E-01  3.7140886924E-01
                       5.8270378368E-01  6.7081367380E-01  1.0177304860E+00
                       8.3636057894E-01  5.8468094907E-01 -3.7979405569E-03
                       8.8514723834E-01  7.7527602873E-01  9.4275422054E-01
                       7.2950389703E-01  6.9617734732E-01  7.3688378636E-01
                       6.0288849225E-01  3.1368985476E-02  7.7341770758E-01
                       7.3992252683E-01  8.8651531329E-01  9.0626824898E-01
                       6.9750812936E-01  8.9774905255E-01  4.7978020730E-01
                       2.1883687429E-02  7.9098568155E-01  2.6508453524E-01
                       9.1327809185E-01  8.5722912231E-01  5.6404953054E-01
                       8.1981846037E-01  7.3991007714E-01  2.9568412163E-01
                       6.0065522131E-02 -3.9068863777E-02  1.1019444506E-02
                       2.2608729994E-01  2.5130676420E-01  7.9186961937E-01
                       1.0169197446E+00  2.5667834490E-01  3.2966503897E-01
                       7.7144630804E-01  5.0195456722E-01  6.3296374078E-01
                       2.0655250448E-01  7.1485124109E-01  8.8169815823E-01
                       5.2398082607E-01  7.9404117265E-01  4.1003422666E-01
                       4.8493663480E-01  4.9759794977E-01  1.1452374878E-01
                       7.9442448300E-01  1.0182546229E+00  6.7413633473E-01
            znucl       57.00000   42.00000    8.00000
 
================================================================================
 
 chkinp: Checking input parameters for consistency, jdtset=   1.
 
================================================================================
== DATASET  1 ==================================================================
-   mpi_nproc: 60, omp_nthreads: 1 (-1 if OMP is not activated)
 

--- !DatasetInfo
iteration_state: {dtset: 1, }
dimensions: {natom: 104, nkpt: 1, mband: 420, nsppol: 1, nspinor: 1, nspden: 1, mpw: 1299, }
cutoff_energies: {ecut:  30.0, pawecutdg:  30.0, }
electrons: {nelect:   8.32000000E+02, charge:   0.00000000E+00, occopt:   1.00000000E+00, tsmear:   1.00000000E-02, }
meta: {optdriver: 0, ionmov: 0, optcell: 0, iscf: 7, paral_kgb: 1, }
...

 Real(R)+Recip(G) space primitive vectors, cartesian coordinates (Bohr,Bohr^-1):
 R(1)= 26.7993722 -0.6622699  0.0660357  G(1)=  0.0373368  0.0009020 -0.0000721
 R(2)= -0.6586140 27.2556558 -0.0741616  G(2)=  0.0009070  0.0367118  0.0000981
 R(3)=  0.0271110 -0.0369152 13.5682772  G(3)= -0.0001768  0.0001963  0.0737022
 Unit cell volume ucvol=  9.9046998E+03 bohr^3
 Angles (23,13,12)=  9.03144575E+01  8.97405633E+01  9.28002223E+01 degrees
 
 Coarse grid specifications (used for wave-functions):
 
 getcut: wavevector=  0.0000  0.0000  0.0000  ngfft= 144 144  72
         ecut(hartree)=     30.000   => boxcut(ratio)=   2.14224
 
 Fine grid specifications (used for densities):
 
 getcut: wavevector=  0.0000  0.0000  0.0000  ngfft= 144 144  72
         ecut(hartree)=     30.000   => boxcut(ratio)=   2.14224
 
--- Pseudopotential description ------------------------------------------------
- pspini: atom type   1  psp file is ~/ABINIT_PAW_PBE/paw_pbe_standard/La.xml
- pspatm: opening atomic psp file    ~/ABINIT_PAW_PBE/paw_pbe_standard/La.xml
- pspatm : Reading pseudopotential header in XML form from ~/ABINIT_PAW_PBE/paw_pbe_standard/La.xml
 Pseudopotential format is: paw10
 basis_size (lnmax)=  8 (lmn_size= 32), orbitals=   0   0   1   1   2   2   3   3
 Spheres core radius: rc_sph= 2.51647158
 1 radial meshes are used:
  - mesh 1: r(i)=AA*[exp(BB*(i-1))-1], size=1500 , AA= 0.15403E-03 BB= 0.87795E-02
 Shapefunction is SIN type: shapef(r)=[sin(pi*r/rshp)/(pi*r/rshp)]**2
 Radius for shape functions =  2.30494653
 mmax= 1500
 Radial grid used for partial waves is grid 1
 Radial grid used for projectors is grid 1
 Radial grid used for (t)core density is grid 1
 Radial grid used for Vloc is grid 1
 Radial grid used for pseudo valence density is grid 1
 Mesh size for Vloc has been set to 1342 to avoid numerical noise.
 Compensation charge density is not taken into account in XC energy/potential
 pspatm: atomic psp has been read  and splines computed
 
- pspini: atom type   2  psp file is ~/ABINIT_PAW_PBE/paw_pbe_standard/Mo.xml
- pspatm: opening atomic psp file    ~/ABINIT_PAW_PBE/paw_pbe_standard/Mo.xml
- pspatm : Reading pseudopotential header in XML form from ~/ABINIT_PAW_PBE/paw_pbe_standard/Mo.xml
 Pseudopotential format is: paw10
 basis_size (lnmax)=  6 (lmn_size= 18), orbitals=   0   0   1   1   2   2
 Spheres core radius: rc_sph= 2.20000000
 1 radial meshes are used:
  - mesh 1: r(i)=AA*[exp(BB*(i-1))-1], size= 846 , AA= 0.34789E-03 BB= 0.14611E-01
 Shapefunction is SIN type: shapef(r)=[sin(pi*r/rshp)/(pi*r/rshp)]**2
 Radius for shape functions =  1.90088266
 mmax=  846
 Radial grid used for partial waves is grid 1
 Radial grid used for projectors is grid 1
 Radial grid used for (t)core density is grid 1
 Radial grid used for Vloc is grid 1
 Radial grid used for pseudo valence density is grid 1
 Mesh size for Vloc has been set to  751 to avoid numerical noise.
 Compensation charge density is not taken into account in XC energy/potential
 pspatm: atomic psp has been read  and splines computed
 
- pspini: atom type   3  psp file is ~/ABINIT_PAW_PBE/paw_pbe_standard/O.xml
- pspatm: opening atomic psp file    ~/ABINIT_PAW_PBE/paw_pbe_standard/O.xml
- pspatm : Reading pseudopotential header in XML form from ~/ABINIT_PAW_PBE/paw_pbe_standard/O.xml
 Pseudopotential format is: paw10
 basis_size (lnmax)=  4 (lmn_size=  8), orbitals=   0   0   1   1
 Spheres core radius: rc_sph= 1.41465230
 1 radial meshes are used:
  - mesh 1: r(i)=AA*[exp(BB*(i-1))-1], size=2001 , AA= 0.72565E-03 BB= 0.58052E-02
 Shapefunction is SIN type: shapef(r)=[sin(pi*r/rshp)/(pi*r/rshp)]**2
 Radius for shape functions =  1.20231231
 mmax= 2001
 Radial grid used for partial waves is grid 1
 Radial grid used for projectors is grid 1
 Radial grid used for (t)core density is grid 1
 Radial grid used for Vloc is grid 1
 Radial grid used for pseudo valence density is grid 1
 Mesh size for Vloc has been set to 1762 to avoid numerical noise.
 Compensation charge density is not taken into account in XC energy/potential
 pspatm: atomic psp has been read  and splines computed
 
   1.43661083E+06                                ecore*ucvol(ha*bohr**3)
--------------------------------------------------------------------------------
 
-inwffil : will read wavefunctions from disk file abi-i_DS1_WFK
_setup2: Arith. and geom. avg. npw (full set) are    1299.000    1299.000
 
================================================================================

--- !BeginCycle
iteration_state: {dtset: 1, }
solver: {iscf: 7, nstep: 100, nline: 4, wfoptalg: 114, }
tolerances: {tolvrs: 1.00E-20, }
...
 
     iter   Etot(hartree)      deltaE(h)  residm     vres2
 ETOT  1  -2777.4321873991    -2.777E+03 1.801E-05 4.856E+00
 ETOT  2  -2777.4327590141    -5.716E-04 3.177E-06 4.372E+00
 ETOT  3  -2777.4333682160    -6.092E-04 5.881E-06 6.716E-01
 ETOT  4  -2777.4335102915    -1.421E-04 2.579E-06 3.146E-01
 ETOT  5  -2777.4335642789    -5.399E-05 1.788E-06 1.916E-02
 ETOT  6  -2777.4335635665     7.124E-07 1.421E-06 1.727E-02
 ETOT  7  -2777.4335668311    -3.265E-06 1.260E-06 2.130E-03
 ETOT  8  -2777.4335671647    -3.336E-07 8.671E-07 3.628E-04
 ETOT  9  -2777.4335672337    -6.900E-08 6.581E-07 8.057E-05
 ETOT 10  -2777.4335672462    -1.246E-08 5.853E-07 2.184E-05
 ETOT 11  -2777.4335672494    -3.212E-09 5.696E-07 8.717E-06
 ETOT 12  -2777.4335672502    -8.536E-10 5.203E-07 2.104E-06
 ETOT 13  -2777.4335672505    -2.806E-10 3.831E-07 5.351E-07
 ETOT 14  -2777.4335672506    -9.868E-11 3.978E-07 8.434E-08
 ETOT 15  -2777.4335672506    -2.001E-11 3.328E-07 5.381E-08
 ETOT 16  -2777.4335672506     4.093E-12 3.896E-07 9.963E-09
 ETOT 17  -2777.4335672506    -2.274E-12 2.909E-07 3.490E-09
 ETOT 18  -2777.4335672506    -3.638E-12 2.577E-07 4.517E-10
 ETOT 19  -2777.4335672506     1.819E-12 1.942E-07 1.662E-10
 ETOT 20  -2777.4335672506     4.547E-13 2.390E-07 5.722E-11
 ETOT 21  -2777.4335672506     9.095E-13 1.794E-07 1.459E-11
 ETOT 22  -2777.4335672506     0.000E+00 1.431E-07 5.109E-12
 ETOT 23  -2777.4335672506    -1.819E-12 1.528E-07 1.666E-12
 ETOT 24  -2777.4335672506     1.819E-12 1.231E-07 6.849E-13
 ETOT 25  -2777.4335672506    -3.638E-12 1.350E-07 8.896E-14
 ETOT 26  -2777.4335672506    -4.547E-13 8.817E-08 7.612E-14
 ETOT 27  -2777.4335672506     0.000E+00 1.331E-07 5.606E-15
 ETOT 28  -2777.4335672506    -9.095E-13 6.410E-08 3.895E-15
 ETOT 29  -2777.4335672506     2.274E-12 7.618E-08 7.426E-16
 ETOT 30  -2777.4335672506    -2.728E-12 8.309E-08 2.225E-16
 ETOT 31  -2777.4335672506     4.547E-12 4.407E-08 6.512E-17
 ETOT 32  -2777.4335672506    -9.095E-13 5.066E-08 3.309E-17
 ETOT 33  -2777.4335672506     4.547E-13 5.277E-08 1.121E-17
 ETOT 34  -2777.4335672506    -9.095E-13 4.438E-08 3.134E-18
 ETOT 35  -2777.4335672506    -1.819E-12 4.247E-08 1.894E-18
 ETOT 36  -2777.4335672506     1.819E-12 3.322E-08 1.356E-19
 ETOT 37  -2777.4335672506    -9.095E-13 4.552E-09 1.007E-19
 ETOT 38  -2777.4335672506     9.095E-13 3.475E-09 2.958E-20
 ETOT 39  -2777.4335672506    -9.095E-13 3.426E-09 1.059E-20
 ETOT 40  -2777.4335672506     4.547E-13 3.672E-09 2.793E-21
 
 At SCF step   40       vres2   =  2.79E-21 < tolvrs=  1.00E-20 =>converged.
 
 Cartesian components of stress tensor (hartree/bohr^3)
  sigma(1 1)= -4.86472795E-06  sigma(3 2)= -7.83687577E-07
  sigma(2 2)=  3.62462480E-06  sigma(3 1)=  8.59829788E-07
  sigma(3 3)=  1.32092532E-06  sigma(2 1)= -1.18786621E-06
 

--- !ResultsGS
iteration_state: {dtset: 1, }
comment   : Summary of ground state results
lattice_vectors:
- [ 26.7993722,  -0.6622699,   0.0660357, ]
- [ -0.6586140,  27.2556558,  -0.0741616, ]
- [  0.0271110,  -0.0369152,  13.5682772, ]
lattice_lengths: [  26.80764,   27.26371,   13.56835, ]
lattice_angles: [ 90.314,  89.741,  92.800, ] # degrees, (23, 13, 12)
lattice_volume:   9.9046998E+03
convergence: {deltae:  4.547E-13, res2:  2.793E-21, residm:  3.672E-09, diffor: null, }
etotal    :  -2.77743357E+03
entropy   :   0.00000000E+00
fermie    :   1.14198433E-01
cartesian_stress_tensor: # hartree/bohr^3
- [ -4.86472795E-06,  -1.18786621E-06,   8.59829788E-07, ]
- [ -1.18786621E-06,   3.62462480E-06,  -7.83687577E-07, ]
- [  8.59829788E-07,  -7.83687577E-07,   1.32092532E-06, ]
pressure_GPa:  -7.9262E-04
xred      :
- [  4.2922E-01,   4.3729E-01,   8.3002E-01, La]
- [  1.4695E-01,   3.0222E-01,   1.1331E-01, La]
- [  1.0449E-01,   1.6915E-01,   5.9494E-01, La]
- [  3.2422E-01,   6.0030E-02,   3.3066E-01, La]
- [  9.1238E-01,   4.3779E-01,   8.7850E-01, La]
- [  6.8370E-01,   3.3718E-01,   1.7071E-01, La]
- [  5.6752E-01,   2.0054E-01,   7.0986E-01, La]
- [  8.3036E-01,   7.5984E-02,   3.7231E-01, La]
- [  4.3290E-01,   9.3938E-01,   8.4167E-01, La]
- [  1.8699E-01,   8.2736E-01,   1.4203E-01, La]
- [  9.6867E-02,   6.7059E-01,   6.1578E-01, La]
- [  3.2512E-01,   5.6896E-01,   3.3782E-01, La]
- [  9.0694E-01,   9.3973E-01,   8.6077E-01, La]
- [  6.5730E-01,   8.1592E-01,   1.9867E-01, La]
- [  5.5605E-01,   6.8342E-01,   6.5399E-01, La]
- [  8.0936E-01,   5.7296E-01,   3.4753E-01, La]
- [  9.2471E-02,   6.3996E-02,   1.5433E-01, Mo]
- [  3.2596E-01,   1.7144E-01,   7.8440E-01, Mo]
- [  4.0068E-01,   3.2713E-01,   3.0892E-01, Mo]
- [  1.5854E-01,   4.0195E-01,   6.5258E-01, Mo]
- [  6.0049E-01,   9.5766E-02,   1.8191E-01, Mo]
- [  8.4895E-01,   1.6850E-01,   8.2529E-01, Mo]
- [  9.1964E-01,   3.3375E-01,   3.2366E-01, Mo]
- [  6.6964E-01,   4.2535E-01,   7.0705E-01, Mo]
- [  8.3530E-02,   5.4746E-01,   1.7888E-01, Mo]
- [  3.2016E-01,   6.6469E-01,   8.1267E-01, Mo]
- [  4.2294E-01,   8.4530E-01,   2.9892E-01, Mo]
- [  1.3730E-01,   8.9861E-01,   6.9529E-01, Mo]
- [  5.7235E-01,   5.8555E-01,   1.9816E-01, Mo]
- [  8.4068E-01,   6.7505E-01,   8.2727E-01, Mo]
- [  9.0994E-01,   8.2795E-01,   3.2764E-01, Mo]
- [  6.7466E-01,   9.3444E-01,   7.1589E-01, Mo]
- [  7.0533E-02,   3.4711E-01,   8.0206E-01,  O]
- [  1.7536E-01,   1.5477E-01,   2.7853E-01,  O]
- [  3.2779E-01,   3.5043E-01,   1.1550E-01,  O]
- [  4.2755E-01,   9.6554E-02,   6.9607E-01,  O]
- [  5.8265E-01,   3.5396E-01,   8.6460E-01,  O]
- [  6.1915E-01,   1.4904E-01,   4.0104E-01,  O]
- [  8.3878E-01,   4.1981E-01,   2.1192E-01,  O]
- [  9.3357E-01,   1.4380E-01,   6.4653E-01,  O]
- [  6.0835E-02,   8.1384E-01,   8.0341E-01,  O]
- [  1.5367E-01,   6.4822E-01,   2.5978E-01,  O]
- [  3.4350E-01,   9.1531E-01,   1.3773E-01,  O]
- [  4.1003E-01,   5.8894E-01,   6.9340E-01,  O]
- [  5.7363E-01,   8.5195E-01,   7.4859E-01,  O]
- [  6.5655E-01,   6.5940E-01,   3.6125E-01,  O]
- [  8.7218E-01,   9.2790E-01,   2.0768E-01,  O]
- [  9.1975E-01,   6.4556E-01,   6.4322E-01,  O]
- [  8.0643E-02,   1.4575E-01,   9.6576E-01,  O]
- [  9.9725E-01,   6.9702E-02,   3.1382E-01,  O]
- [  1.8156E-01,   9.8308E-01,   2.5493E-01,  O]
- [  3.9671E-01,   4.2088E-01,   4.7209E-01,  O]
- [  3.6225E-01,   2.2267E-01,   4.1692E-01,  O]
- [  5.1573E-01,   3.0718E-01,   2.3502E-01,  O]
- [  3.1709E-01,   1.2455E-01,   8.0024E-03,  O]
- [  4.1656E-01,   2.6873E-01,   7.7915E-01,  O]
- [  2.4936E-01,   9.5657E-02,   6.2588E-01,  O]
- [  2.5929E-01,   4.4373E-01,   7.7293E-01,  O]
- [  1.8313E-01,   3.2896E-01,   4.6043E-01,  O]
- [  1.0772E-01,   5.0155E-01,   5.6314E-01,  O]
- [  1.0363E-02,   4.0528E-01,   1.5133E-01,  O]
- [  9.2098E-01,   3.7841E-01,   5.4920E-01,  O]
- [  8.2317E-01,   2.4372E-01,   3.0977E-01,  O]
- [  4.8167E-01,   5.9917E-02,   1.4395E-01,  O]
- [  6.3917E-01,   1.8418E-01,   1.0218E+00,  O]
- [  6.7907E-01,   1.0054E+00,   1.8347E-01,  O]
- [  7.5359E-01,   3.8825E-01,   8.8891E-01,  O]
- [  6.5227E-01,   3.4580E-01,   5.1815E-01,  O]
- [  5.8446E-01,   5.1494E-01,   7.0702E-01,  O]
- [  8.4862E-01,   8.7389E-02,   1.5034E-02,  O]
- [  8.9230E-01,   2.7130E-01,   9.3552E-01,  O]
- [  7.4432E-01,   1.9563E-01,   7.1335E-01,  O]
- [  3.2998E-01,   5.9623E-01,   1.6878E-02,  O]
- [  3.9719E-01,   7.6581E-01,   8.0673E-01,  O]
- [  2.5177E-01,   6.3512E-01,   5.9142E-01,  O]
- [  1.8158E-01,   4.7084E-01,   1.9764E-01,  O]
- [  5.2667E-02,   5.6510E-01,   9.4173E-01,  O]
- [  9.8174E-01,   5.6845E-01,   3.1968E-01,  O]
- [  3.9985E-01,   9.2605E-01,   4.8743E-01,  O]
- [  3.3883E-01,   7.4917E-01,   2.8741E-01,  O]
- [  5.1109E-01,   8.7098E-01,   1.0572E-01,  O]
- [  7.1113E-02,  -3.7898E-03,   6.4045E-01,  O]
- [  2.3979E-01,   9.1833E-01,   8.3305E-01,  O]
- [  1.7022E-01,   8.3076E-01,   4.9833E-01,  O]
- [  6.6534E-01,   5.0003E-01,   2.1002E-01,  O]
- [  4.8430E-01,   6.1592E-01,   3.7141E-01,  O]
- [  5.8270E-01,   6.7081E-01,   1.0177E+00,  O]
- [  8.3636E-01,   5.8468E-01,  -3.7979E-03,  O]
- [  8.8515E-01,   7.7528E-01,   9.4275E-01,  O]
- [  7.2950E-01,   6.9618E-01,   7.3688E-01,  O]
- [  6.0289E-01,   3.1369E-02,   7.7342E-01,  O]
- [  7.3992E-01,   8.8652E-01,   9.0627E-01,  O]
- [  6.9751E-01,   8.9775E-01,   4.7978E-01,  O]
- [  2.1884E-02,   7.9099E-01,   2.6508E-01,  O]
- [  9.1328E-01,   8.5723E-01,   5.6405E-01,  O]
- [  8.1982E-01,   7.3991E-01,   2.9568E-01,  O]
- [  6.0066E-02,  -3.9069E-02,   1.1019E-02,  O]
- [  2.2609E-01,   2.5131E-01,   7.9187E-01,  O]
- [  1.0169E+00,   2.5668E-01,   3.2967E-01,  O]
- [  7.7145E-01,   5.0195E-01,   6.3296E-01,  O]
- [  2.0655E-01,   7.1485E-01,   8.8170E-01,  O]
- [  5.2398E-01,   7.9404E-01,   4.1003E-01,  O]
- [  4.8494E-01,   4.9760E-01,   1.1452E-01,  O]
- [  7.9442E-01,   1.0183E+00,   6.7414E-01,  O]
cartesian_forces: # hartree/bohr
- [  6.47293984E-04,   5.20985710E-04,  -1.97785637E-04, ]
- [  4.18595437E-04,   2.16367583E-04,   1.26182472E-04, ]
- [  1.54605776E-05,  -1.09751423E-03,   1.00459800E-03, ]
- [  1.24999372E-03,  -1.70641665E-03,   1.91968246E-03, ]
- [  4.65775422E-04,   9.40018792E-04,   1.43438651E-03, ]
- [  8.87418613E-07,   1.26848452E-04,  -2.81598208E-08, ]
- [ -2.43870827E-03,  -6.91083041E-04,   6.99765708E-04, ]
- [ -3.59606131E-04,  -8.39398184E-04,  -3.21911128E-04, ]
- [ -8.75817893E-04,  -1.56624928E-03,  -1.69754081E-03, ]
- [ -1.24136290E-03,  -5.86577109E-05,  -4.10526734E-05, ]
- [ -1.78530901E-04,   1.14549193E-03,  -1.00033028E-03, ]
- [ -2.84465034E-03,  -1.43172187E-03,   8.78100724E-04, ]
- [  2.34051817E-03,   3.06132710E-03,   4.33159254E-04, ]
- [ -2.58599628E-05,  -2.28411234E-03,   3.12714396E-04, ]
- [  2.53590175E-04,  -3.10985179E-04,   3.46747123E-05, ]
- [ -5.03640424E-04,  -4.34071501E-05,  -9.25901511E-04, ]
- [ -1.00482119E-03,  -1.28482474E-03,   5.25245865E-04, ]
- [ -5.44041203E-04,  -1.66912352E-03,  -1.14169655E-03, ]
- [  2.94782801E-04,   1.77184616E-03,  -6.46530717E-04, ]
- [ -3.04882530E-04,  -2.65869796E-03,   9.49685799E-04, ]
- [ -2.20603508E-03,  -1.78891579E-05,  -1.99155525E-03, ]
- [ -1.23912687E-03,  -4.63621178E-04,  -1.49880133E-03, ]
- [  2.00200129E-03,  -6.62735639E-04,  -1.96180991E-03, ]
- [  2.91410535E-03,  -1.21833762E-03,   2.40387815E-03, ]
- [ -1.73098093E-03,   3.57326021E-04,   1.68524070E-03, ]
- [ -6.86588614E-03,   2.54206834E-04,  -7.51737011E-04, ]
- [  2.47517091E-03,   9.86078220E-04,  -1.46743457E-03, ]
- [  4.85343161E-04,   6.57789106E-04,   9.63044472E-04, ]
- [ -1.66489996E-03,   1.48400312E-03,   1.91876747E-03, ]
- [ -5.21650967E-04,  -1.71602806E-03,  -6.52118037E-04, ]
- [  1.05953055E-03,   1.93913714E-03,  -1.03995233E-03, ]
- [  1.90538199E-03,  -1.84375047E-04,  -5.20368777E-04, ]
- [ -1.37005881E-04,   3.18724012E-04,   2.72506979E-04, ]
- [ -6.98917206E-04,   1.91689902E-03,  -8.01577656E-04, ]
- [ -7.59923038E-04,  -9.98456711E-04,   3.52277126E-04, ]
- [  9.91022039E-04,   1.47494160E-04,   3.13611864E-04, ]
- [ -2.41156988E-04,  -2.59866458E-03,  -1.46596744E-04, ]
- [  1.89273818E-03,   8.17857798E-04,  -7.34456872E-04, ]
- [ -2.33138516E-03,   2.21787356E-04,   7.27043813E-04, ]
- [  8.05197305E-04,  -2.83526524E-04,  -3.13122050E-04, ]
- [  4.12400187E-04,  -7.73313324E-04,  -7.96039522E-04, ]
- [  8.49575591E-04,  -1.15604652E-03,   1.31583346E-04, ]
- [  4.82485582E-04,   2.58350797E-03,   8.28271245E-04, ]
- [ -1.18708893E-05,  -1.34513331E-03,   6.49077675E-05, ]
- [ -6.06525828E-04,   1.47499779E-03,  -7.81683427E-06, ]
- [  2.83822079E-04,   1.79784379E-03,  -4.96910548E-04, ]
- [ -1.76774741E-03,  -3.96434513E-04,   9.49699969E-04, ]
- [  8.08150962E-04,   1.23897400E-04,   4.03033152E-04, ]
- [  2.27832053E-03,   1.87621358E-03,   2.82046263E-04, ]
- [ -6.84751961E-04,  -2.41700350E-05,   3.97760934E-05, ]
- [  1.39193580E-04,   6.13872860E-04,   3.43806079E-04, ]
- [ -1.72762719E-04,  -5.63536434E-04,   4.12544503E-04, ]
- [ -6.41776379E-04,  -1.19621884E-03,   1.56001926E-04, ]
- [ -6.34921841E-04,   1.73082782E-04,  -3.13587522E-04, ]
- [  8.65538290E-04,   1.66724068E-03,  -4.64844809E-04, ]
- [  2.58597003E-04,   5.90094492E-04,   1.00333144E-03, ]
- [ -2.53686132E-03,   1.54642766E-03,  -3.73405076E-04, ]
- [ -1.49196426E-04,  -1.78017573E-04,   6.39707079E-05, ]
- [  1.18733175E-03,  -4.15535382E-04,   3.06482640E-04, ]
- [ -2.57895709E-03,   3.47100559E-03,  -1.14212150E-03, ]
- [  1.28457199E-03,  -5.53147060E-04,  -2.05764443E-04, ]
- [ -1.27500184E-03,  -3.58900999E-05,  -7.45925925E-04, ]
- [ -8.55053392E-04,  -5.10867375E-04,   8.15251866E-04, ]
- [  1.05794509E-04,   3.06507073E-04,   3.96584110E-04, ]
- [  1.72270903E-03,   7.92820175E-04,   1.07037577E-03, ]
- [  8.26772491E-04,  -8.13409525E-04,   5.33178263E-04, ]
- [  5.66505316E-04,   2.12900535E-03,  -4.91035788E-04, ]
- [ -3.02215415E-03,   1.66659202E-04,  -1.19554041E-04, ]
- [  6.45327036E-04,  -1.22795531E-04,  -4.37236637E-05, ]
- [ -9.40637471E-04,  -2.18314108E-03,   3.61624088E-04, ]
- [  7.46231493E-04,   1.84885061E-03,   4.98279262E-04, ]
- [  1.10750978E-03,  -2.69501964E-04,   1.92215427E-04, ]
- [  6.32426594E-03,  -4.31464293E-04,   9.31297136E-04, ]
- [  3.21848662E-05,   3.15251033E-05,  -3.55578451E-04, ]
- [  2.00700549E-03,   3.41358115E-03,  -7.67134886E-04, ]
- [  1.87780185E-03,  -1.02228295E-03,  -1.93983150E-03, ]
- [  1.19053563E-03,  -2.07184356E-03,   1.60023402E-04, ]
- [  5.37069173E-04,  -2.40584913E-04,   6.05448197E-04, ]
- [ -2.24698025E-03,  -5.83277400E-04,   1.28718028E-03, ]
- [  4.75245492E-04,   2.26839095E-04,  -3.70498398E-04, ]
- [  6.31838829E-04,  -2.10390679E-03,  -6.30313689E-04, ]
- [ -5.01174000E-04,   3.20220391E-04,  -1.53990942E-04, ]
- [  1.19956954E-03,   7.68068854E-04,  -5.20247966E-05, ]
- [  3.25929441E-04,  -1.19045346E-03,   2.48641879E-04, ]
- [ -6.44792219E-04,  -2.07204614E-04,  -9.90389689E-05, ]
- [ -9.42318186E-04,  -1.69041731E-03,  -8.02456748E-04, ]
- [  2.58247550E-03,   3.06113465E-04,  -3.64093876E-04, ]
- [  1.42441257E-05,  -3.48114551E-05,   3.35676788E-04, ]
- [  1.38282930E-03,   2.49156043E-03,   5.36276576E-04, ]
- [  3.32101898E-04,  -3.54800584E-04,  -3.39949836E-04, ]
- [ -1.13849604E-03,   1.39766242E-03,  -3.23683168E-05, ]
- [ -3.71614685E-04,   6.35491014E-04,  -4.74239209E-04, ]
- [ -4.79368238E-04,  -1.00146315E-04,   1.28657893E-03, ]
- [ -8.32142569E-04,  -2.57556604E-05,   3.26315876E-04, ]
- [ -7.71403067E-04,  -3.54812783E-03,  -1.61634800E-03, ]
- [ -1.89221977E-03,  -1.78076029E-03,   1.75556692E-03, ]
- [ -8.53634903E-05,  -2.59676248E-04,  -5.49861955E-04, ]
- [ -1.27087144E-03,   5.94383667E-04,  -4.98304856E-04, ]
- [  2.08231126E-04,   4.29071818E-05,  -9.50474207E-05, ]
- [  1.57128848E-03,   9.65210951E-04,  -1.14245120E-03, ]
- [  6.39909567E-04,  -8.14838161E-04,  -2.22614057E-04, ]
- [  6.03020461E-04,  -4.45319441E-04,   4.75825615E-04, ]
- [ -1.50325062E-03,  -7.18076107E-04,  -8.20449038E-04, ]
- [  5.53330864E-04,   2.70695308E-03,   6.23271813E-04, ]
force_length_stats: {min:   1.26851559E-04, max:   6.91159332E-03, mean:   1.86797844E-03, }
...

 Integrated electronic density in atomic spheres:
 ------------------------------------------------
 Atom  Sphere_radius  Integrated_density
    1        2.51647          7.87871306
    2        2.51647          7.84449520
    3        2.51647          7.86718946
    4        2.51647          7.90773355
    5        2.51647          7.86848712
    6        2.51647          7.89463166
    7        2.51647          7.87969718
    8        2.51647          7.83890590
    9        2.51647          7.82077404
   10        2.51647          7.83199571
   11        2.51647          7.86485838
   12        2.51647          7.88905312
   13        2.51647          7.89265708
   14        2.51647          7.86661638
   15        2.51647          7.86142434
   16        2.51647          7.89915604
   17        2.20000         11.38682233
   18        2.20000         11.35651959
   19        2.20000         11.57538414
   20        2.20000         11.56648656
   21        2.20000         11.59201221
   22        2.20000         11.53742436
   23        2.20000         11.37920083
   24        2.20000         11.39840223
   25        2.20000         11.41132646
   26        2.20000         11.40505802
   27        2.20000         11.38783567
   28        2.20000         11.55001800
   29        2.20000         11.40365957
   30        2.20000         11.54999932
   31        2.20000         11.56993443
   32        2.20000         11.37361631
   33        1.41465          4.54988564
   34        1.41465          4.55807642
   35        1.41465          4.54124263
   36        1.41465          4.54171776
   37        1.41465          4.55060955
   38        1.41465          4.55008700
   39        1.41465          4.56081566
   40        1.41465          4.55605336
   41        1.41465          4.55011671
   42        1.41465          4.54003366
   43        1.41465          4.55028259
   44        1.41465          4.56953972
   45        1.41465          4.54778291
   46        1.41465          4.54850178
   47        1.41465          4.55781977
   48        1.41465          4.54911494
   49        1.41465          4.52285988
   50        1.41465          4.54519758
   51        1.41465          4.56667973
   52        1.41465          4.55283738
   53        1.41465          4.57407802
   54        1.41465          4.56834672
   55        1.41465          4.54646761
   56        1.41465          4.56534951
   57        1.41465          4.57189494
   58        1.41465          4.54331580
   59        1.41465          4.54664379
   60        1.41465          4.55716436
   61        1.41465          4.54038356
   62        1.41465          4.54319729
   63        1.41465          4.53782094
   64        1.41465          4.54148861
   65        1.41465          4.56095560
   66        1.41465          4.54789365
   67        1.41465          4.59713893
   68        1.41465          4.55856997
   69        1.41465          4.57055690
   70        1.41465          4.54543067
   71        1.41465          4.54813460
   72        1.41465          4.55305019
   73        1.41465          4.56519628
   74        1.41465          4.55100238
   75        1.41465          4.58075863
   76        1.41465          4.54307797
   77        1.41465          4.52819697
   78        1.41465          4.55295876
   79        1.41465          4.54296275
   80        1.41465          4.54879755
   81        1.41465          4.54855649
   82        1.41465          4.54969615
   83        1.41465          4.54513136
   84        1.41465          4.54224987
   85        1.41465          4.57685613
   86        1.41465          4.59149193
   87        1.41465          4.54076525
   88        1.41465          4.56691247
   89        1.41465          4.55191826
   90        1.41465          4.55703814
   91        1.41465          4.53465734
   92        1.41465          4.55233347
   93        1.41465          4.54364891
   94        1.41465          4.54919581
   95        1.41465          4.55955465
   96        1.41465          4.56402588
   97        1.41465          4.54664397
   98        1.41465          4.54920679
   99        1.41465          4.55726331
  100        1.41465          4.54882241
  101        1.41465          4.53295823
  102        1.41465          4.55869459
  103        1.41465          4.56291731
  104        1.41465          4.53892896
 
 PAW TEST:
 ==== Compensation charge inside spheres ============
 The following values must be close to each other ...
 Compensation charge over spherical meshes =     84.115049566820772
 Compensation charge over fft grid         =     84.115337672393039
 
 ==== Results concerning PAW augmentation regions ====
 
 Total pseudopotential strength Dij (hartree):
 Atom #  1
   0.47094  -0.11676  -0.00044  -0.00018  -0.00033  -0.00003  -0.00001  -0.00002  -0.00001   0.00007   0.00004   0.00002 ...
  -0.11676   0.02299   0.00008   0.00003   0.00006  -0.00002  -0.00000  -0.00002   0.00000  -0.00001  -0.00000  -0.00001 ...
  -0.00044   0.00008  -0.18133   0.00007  -0.00001   0.04212   0.00008   0.00001  -0.00009  -0.00006   0.00008   0.00002 ...
  -0.00018   0.00003   0.00007  -0.18129   0.00006   0.00008   0.04241  -0.00019   0.00002  -0.00012  -0.00003  -0.00007 ...
  -0.00033   0.00006  -0.00001   0.00006  -0.18133   0.00001  -0.00019   0.04231  -0.00012   0.00002   0.00008  -0.00006 ...
  -0.00003  -0.00002   0.04212   0.00008   0.00001   0.32000   0.00002  -0.00000  -0.00002   0.00001  -0.00000   0.00001 ...
  -0.00001  -0.00000   0.00008   0.04241  -0.00019   0.00002   0.32007  -0.00006   0.00001  -0.00007  -0.00002  -0.00001 ...
  -0.00002  -0.00002   0.00001  -0.00019   0.04231  -0.00000  -0.00006   0.32004  -0.00003   0.00001   0.00003  -0.00002 ...
  -0.00001   0.00000  -0.00009   0.00002  -0.00012  -0.00002   0.00001  -0.00003  -0.05779  -0.00001   0.00000   0.00002 ...
   0.00007  -0.00001  -0.00006  -0.00012   0.00002   0.00001  -0.00007   0.00001  -0.00001  -0.05777   0.00002  -0.00000 ...
   0.00004  -0.00000   0.00008  -0.00003   0.00008  -0.00000  -0.00002   0.00003   0.00000   0.00002  -0.05775  -0.00001 ...
   0.00002  -0.00001   0.00002  -0.00007  -0.00006   0.00001  -0.00001  -0.00002   0.00002  -0.00000  -0.00001  -0.05775 ...
   ...  only 12  components have been written...
 Atom #104
   0.61533  -1.76427   0.00029  -0.00005   0.00019  -0.00210   0.00037  -0.00141
  -1.76427   5.11648  -0.00074   0.00013  -0.00050   0.00559  -0.00105   0.00376
   0.00029  -0.00074  -0.30736   0.00022  -0.00027   0.95325  -0.00115   0.00137
  -0.00005   0.00013   0.00022  -0.30726  -0.00004  -0.00115   0.95268   0.00022
   0.00019  -0.00050  -0.00027  -0.00004  -0.30744   0.00137   0.00022   0.95362
  -0.00210   0.00559   0.95325  -0.00115   0.00137  -0.19573   0.00574  -0.00681
   0.00037  -0.00105  -0.00115   0.95268   0.00022   0.00574  -0.19255  -0.00120
  -0.00141   0.00376   0.00137   0.00022   0.95362  -0.00681  -0.00120  -0.19735
 
 
 Augmentation waves occupancies Rhoij:
 Atom #  1
   2.02515  -0.08100   0.00274   0.00021   0.00123  -0.00164  -0.00022  -0.00097  -0.00091   0.00087   0.00601  -0.01736 ...
  -0.08100   0.25240  -0.01381  -0.00235  -0.00809   0.00457   0.00161   0.00332   0.00332   0.00320  -0.00933   0.03575 ...
   0.00274  -0.01381   2.05364  -0.00226   0.00074  -0.02652   0.00092  -0.00028  -0.01339   0.02730  -0.02354  -0.00942 ...
   0.00021  -0.00235  -0.00226   2.04421   0.00965   0.00091  -0.02064  -0.00625  -0.00690  -0.04127  -0.02922  -0.01623 ...
   0.00123  -0.00809   0.00074   0.00965   2.04892  -0.00029  -0.00626  -0.02289  -0.00383  -0.01226  -0.00890   0.00250 ...
  -0.00164   0.00457  -0.02652   0.00091  -0.00029   0.01698   0.00003   0.00009   0.00417  -0.00926   0.00801   0.00354 ...
  -0.00022   0.00161   0.00092  -0.02064  -0.00626   0.00003   0.01489   0.00257   0.00262   0.01206   0.00988   0.00563 ...
  -0.00097   0.00332  -0.00028  -0.00625  -0.02289   0.00009   0.00257   0.01536   0.00007   0.00463   0.00377  -0.00119 ...
  -0.00091   0.00332  -0.01339  -0.00690  -0.00383   0.00417   0.00262   0.00007   0.09132   0.01244   0.01673  -0.00971 ...
   0.00087   0.00320   0.02730  -0.04127  -0.01226  -0.00926   0.01206   0.00463   0.01244   0.10111   0.02478   0.01857 ...
   0.00601  -0.00933  -0.02354  -0.02922  -0.00890   0.00801   0.00988   0.00377   0.01673   0.02478   0.11342   0.01708 ...
  -0.01736   0.03575  -0.00942  -0.01623   0.00250   0.00354   0.00563  -0.00119  -0.00971   0.01857   0.01708   0.08230 ...
   ...  only 12  components have been written...
 Atom #104
   1.98802   0.03015  -0.00130  -0.00686   0.00079  -0.00156  -0.00017  -0.00100
   0.03015   0.00113  -0.00424   0.00070  -0.00295  -0.00013   0.00000  -0.00009
  -0.00130  -0.00424   1.72272  -0.00874   0.01830   0.03083  -0.00179   0.00296
  -0.00686   0.00070  -0.00874   1.75545  -0.01082  -0.00178   0.03048  -0.00008
   0.00079  -0.00295   0.01830  -0.01082   1.75643   0.00295  -0.00008   0.03271
  -0.00156  -0.00013   0.03083  -0.00178   0.00295   0.00071  -0.00009   0.00014
  -0.00017   0.00000  -0.00179   0.03048  -0.00008  -0.00009   0.00069   0.00001
  -0.00100  -0.00009   0.00296  -0.00008   0.03271   0.00014   0.00001   0.00077
 
 
================================================================================
 
 ----iterations are completed or convergence reached----
 
 Mean square residual over all n,k,spin=   96.134E-13; max=  36.721E-10
 reduced coordinates (array xred) for  104 atoms
       0.429222278400      0.437291319190      0.830015279350
       0.146949205710      0.302221889900      0.113314036390
       0.104492357360      0.169149957630      0.594944794180
       0.324223224110      0.060030438248      0.330662373680
       0.912378875490      0.437790834580      0.878496964640
       0.683695355320      0.337176359020      0.170712250000
       0.567519321780      0.200544036240      0.709861519660
       0.830355253800      0.075983551692      0.372308134680
       0.432900548570      0.939376176020      0.841667398930
       0.186993439620      0.827358182050      0.142025053570
       0.096867278553      0.670585145740      0.615778066920
       0.325124452560      0.568964564360      0.337820146550
       0.906943088960      0.939727988890      0.860774952620
       0.657304910760      0.815922838250      0.198666078140
       0.556051712180      0.683423270430      0.653987559110
       0.809364273870      0.572962203100      0.347534909020
       0.092470683971      0.063995942585      0.154329185110
       0.325957802030      0.171440083100      0.784400554250
       0.400679699510      0.327126968760      0.308920764220
       0.158538298620      0.401952776440      0.652576131250
       0.600488782780      0.095766265852      0.181911631160
       0.848951251760      0.168501198280      0.825290754040
       0.919642107290      0.333753508480      0.323661775690
       0.669641591090      0.425353070700      0.707049149910
       0.083529948475      0.547458076400      0.178881984360
       0.320163806790      0.664688848090      0.812673364820
       0.422940451570      0.845298550690      0.298919375640
       0.137298591780      0.898614640860      0.695285619500
       0.572349411000      0.585548581020      0.198155117970
       0.840680927070      0.675049317750      0.827266211040
       0.909940055890      0.827952513920      0.327638009340
       0.674663386510      0.934437880480      0.715892539390
       0.070533386691      0.347107695370      0.802061621450
       0.175356008250      0.154772942880      0.278530363040
       0.327791016160      0.350429938740      0.115497883000
       0.427547888700      0.096553960812      0.696068124920
       0.582646631100      0.353958172980      0.864601948930
       0.619149479180      0.149043076180      0.401039206540
       0.838775920170      0.419810281230      0.211916926180
       0.933571163150      0.143796811700      0.646528037100
       0.060835344970      0.813838812040      0.803407822980
       0.153666521990      0.648217496950      0.259776740480
       0.343497073110      0.915306438530      0.137732463270
       0.410026791750      0.588944316490      0.693402104860
       0.573630917500      0.851952752360      0.748587348600
       0.656550635040      0.659400263440      0.361251634830
       0.872175167060      0.927901876870      0.207684288130
       0.919754275630      0.645560387670      0.643222715910
       0.080642760158      0.145745069690      0.965761673400
       0.997247755540      0.069701820936      0.313823755830
       0.181555049690      0.983082312420      0.254925982110
       0.396709323210      0.420880626060      0.472090420320
       0.362251305350      0.222674214700      0.416918026530
       0.515733991540      0.307178217270      0.235015467730
       0.317093856690      0.124552772080      0.008002420767
       0.416557862540      0.268729176890      0.779148916740
       0.249364961450      0.095656989124      0.625877909040
       0.259289968470      0.443728084830      0.772928400870
       0.183131211800      0.328961280790      0.460426148390
       0.107723558030      0.501553578200      0.563141520500
       0.010363000078      0.405275433230      0.151328910510
       0.920983992250      0.378411248040      0.549201448020
       0.823165685380      0.243724521190      0.309769296230
       0.481668953500      0.059917386076      0.143947058270
       0.639168578340      0.184177892970      1.021812976000
       0.679069266520      1.005370965800      0.183471699340
       0.753587093090      0.388249085960      0.888913828850
       0.652274138640      0.345795600580      0.518151540600
       0.584462431970      0.514940303970      0.707022723380
       0.848618466810      0.087389454921      0.015033977561
       0.892295388900      0.271301360450      0.935524593170
       0.744321958790      0.195632130080      0.713351491950
       0.329975766050      0.596234468270      0.016878227291
       0.397194635810      0.765810058420      0.806729839660
       0.251767847980      0.635120673440      0.591421256830
       0.181583424480      0.470840013930      0.197641928950
       0.052667152136      0.565103738350      0.941733420860
       0.981736171890      0.568446605880      0.319677100750
       0.399846647180      0.926053354510      0.487431941410
       0.338828217660      0.749167355600      0.287413269960
       0.511092324520      0.870981456930      0.105719243350
       0.071112544914     -0.003789821166      0.640453116460
       0.239793812450      0.918326574910      0.833049947100
       0.170220437330      0.830758126550      0.498334394490
       0.665341167390      0.500029839510      0.210021126620
       0.484300488750      0.615923795400      0.371408869240
       0.582703783680      0.670813673800      1.017730486000
       0.836360578940      0.584680949070     -0.003797940557
       0.885147238340      0.775276028730      0.942754220540
       0.729503897030      0.696177347320      0.736883786360
       0.602888492250      0.031368985476      0.773417707580
       0.739922526830      0.886515313290      0.906268248980
       0.697508129360      0.897749052550      0.479780207300
       0.021883687429      0.790985681550      0.265084535240
       0.913278091850      0.857229122310      0.564049530540
       0.819818460370      0.739910077140      0.295684121630
       0.060065522131     -0.039068863777      0.011019444506
       0.226087299940      0.251306764200      0.791869619370
       1.016919744600      0.256678344900      0.329665038970
       0.771446308040      0.501954567220      0.632963740780
       0.206552504480      0.714851241090      0.881698158230
       0.523980826070      0.794041172650      0.410034226660
       0.484936634800      0.497597949770      0.114523748780
       0.794424483000      1.018254622900      0.674136334730
 rms dE/dt=  3.2379E-02; max dE/dt=  1.8433E-01; dE/dt below (all hartree)
    1      -0.016876962627     -0.013657477211      0.002916143520
    2      -0.010971118043     -0.005481508487     -0.001484590360
    3      -0.001095508125      0.030128836458     -0.013440748576
    4      -0.034643907357      0.047605816130     -0.025912815314
    5      -0.011842647798     -0.025077004811     -0.019209230623
    6       0.000172243199     -0.003326074193      0.000235890357
    7       0.064963973124      0.017412330917     -0.009223160917
    8       0.009214583686      0.022748314038      0.004577391831
    9       0.022658203933      0.042117114060      0.023229479810
   10       0.033343625764      0.000908811996      0.000819353031
   11       0.005721214137     -0.031282221536      0.013850734403
   12       0.075340686494      0.037344794361     -0.011659195167
   13      -0.060613581019     -0.081734174674     -0.005596819471
   14      -0.000728302780      0.062391820439     -0.004095763295
   15      -0.006892287689      0.008776375734     -0.000257981587
   16       0.013641658190      0.000913400511      0.012805789846
   17       0.026155006928      0.034526585800     -0.006916019599
   18       0.013661960822      0.045180753984      0.015674838350
   19      -0.006571843749     -0.048015947561      0.009060573864
   20       0.006459187186      0.072464867843     -0.012744631147
   21       0.059352037215     -0.000982360691      0.027311970795
   22       0.033111769936      0.011839720545      0.020583480914
   23      -0.053849722343      0.019367030733      0.026770488860
   24      -0.078949788477      0.035434818104     -0.032509614854
   25       0.046626578094     -0.010623542004     -0.022574843772
   26       0.184331448921     -0.011375611721      0.010626151249
   27      -0.065471057606     -0.025224172397      0.020110705476
   28      -0.012522837738     -0.017406717536     -0.012824880350
   29       0.045586392749     -0.041271024711     -0.025703599645
   30       0.012998523430      0.046510222617      0.009029762927
   31      -0.026929831669     -0.052101075949      0.014384069756
   32      -0.051038768487      0.006372263874      0.007232894352
   33       0.003976773410     -0.008626375226     -0.003451120379
   34       0.020164995365     -0.052635421747      0.011196588604
   35       0.019792965289      0.026869903048     -0.004565199918
   36      -0.026369781438     -0.003213409927     -0.004045745856
   37       0.004863534801      0.070789287054      0.002130522711
   38      -0.050022036205     -0.020968454050      0.010175041385
   39       0.062690546637     -0.007395842886     -0.009562488645
   40      -0.021633860422      0.008365475103      0.004447080278
   41      -0.011399625523      0.021420419891      0.010992006935
   42      -0.023430380835      0.032208788004     -0.001620218191
   43      -0.011162010870     -0.069905325147     -0.010925074054
   44      -0.000464979503      0.036790166973     -0.000699170930
   45       0.017343889964     -0.040471396912      0.000407804076
   46      -0.006270766128     -0.048720652668      0.007031742808
   47       0.047161275572      0.009841931839     -0.012621651674
   48      -0.021490483791     -0.002684074572     -0.005254951924
   49      -0.059721609543     -0.049485299389     -0.003588538999
   50       0.018444304619      0.000341413933     -0.000291171263
   51      -0.003234438820     -0.016483654144     -0.004415118909
   52       0.004341492176      0.015407047226     -0.005382787751
   53       0.016508698282      0.032323296396     -0.001912587109
   54       0.017262857921     -0.005028228155      0.004509294887
   55      -0.021949007363     -0.044775474995      0.006576073795
   56      -0.006493675526     -0.015708006902     -0.013367856741
   57       0.069147117147     -0.043716723570      0.005423176925
   58       0.003988266208      0.004889148179     -0.000639649282
   59      -0.032003165098      0.012261093079     -0.003975121083
   60       0.071600610104     -0.096257091157      0.015925521890
   61      -0.034666452168      0.016037844320      0.002967473062
   62       0.034306753328      0.000213836212      0.010385021125
   63       0.022634741942      0.013552016730     -0.010826390962
   64      -0.002546409044     -0.008124281032     -0.005141666853
   65      -0.045601126958     -0.020264171502     -0.014309742764
   66      -0.022618873512      0.022884756501     -0.007055902590
   67      -0.013627569010     -0.057560063478      0.006956593500
   68       0.081222117798     -0.006411024104      0.001941078077
   69      -0.017260780205      0.003899332698      0.000802075973
   70       0.023850800587      0.059040924607     -0.004730855600
   71      -0.018694985923     -0.049732522794     -0.006481921834
   72      -0.029759727207      0.008219810413     -0.002417156961
   73      -0.169721585939      0.016124840156     -0.012592633004
   74      -0.000706159510     -0.000733729065      0.005055727864
   75      -0.051363101041     -0.091643761559      0.010711149507
   76      -0.050760824130      0.029086559035      0.026462374098
   77      -0.033176278641      0.057396107083     -0.002049151380
   78      -0.014480414340      0.007086603029     -0.008007480994
   79       0.059858388737      0.014643855854     -0.017194582979
   80      -0.012449570302     -0.005766440540      0.005253364063
   81      -0.018172599230      0.057843433122      0.008688324557
   82       0.013765405479     -0.008938636022      0.002345649832
   83      -0.031523590518     -0.020017344042      0.000932568400
   84      -0.009427509479      0.032810372359     -0.003195574354
   85       0.017261357075      0.005346164709      0.001584469864
   86       0.024299029766      0.045523977902      0.011081950375
   87      -0.068869933456     -0.006538789265      0.005112262961
   88      -0.000314939181      0.001113765913     -0.004325377237
   89      -0.035332269180     -0.066827910257     -0.006991012984
   90      -0.009000631595      0.009994519486      0.004821282125
   91       0.031550762163     -0.038715754699      0.000752492812
   92       0.010523239260     -0.017469964137      0.006698992871
   93       0.012807499431      0.002639930790     -0.017216510592
   94       0.022374308392      0.000308807925     -0.004175085064
   95       0.018542051970      0.096209304180      0.022051841038
   96       0.049527043533      0.047550423732     -0.023603605908
   97       0.002264038402      0.007111327350      0.007684257385
   98       0.034597120801     -0.016943604306      0.007048384544
   99      -0.005433755099     -0.000908687143      0.001516418009
  100      -0.041282856339     -0.025226629648      0.015724975912
  101      -0.017562101285      0.022744573595      0.003203910386
  102      -0.016374897254      0.012700600269     -0.006258071693
  103       0.039976807257      0.018651408578      0.011377176400
  104      -0.012965328678     -0.073238445783     -0.008140948639
 
 cartesian coordinates (angstrom) at end:
    1      5.94656748551401     6.14044557467610     5.95736648565201
    2      1.98027157444009     4.30525492766946     0.80687188515569
    3      1.43145325107047     2.39141973061731     4.26873053940698
    4      4.58183141983189     0.74573726517373     2.38313743805802
    5     12.79903073368825     5.97737687875286     6.32233021592297
    6      9.58084088930334     4.62017742747248     1.23637698780082
    7      7.98863139012694     2.67970234543780     5.10878352028637
    8     11.75463943839540     0.79763853416255     2.69921547111372
    9      5.82391008500627    13.38053483315818     6.02145337140200
   10      2.36555311107456    11.86473870507432     0.99380819762651
   11      1.14885422757280     9.62592077029421     4.39836882122462
   12      4.41733946747793     8.08567505911705     2.41458897122801
   13     12.54675133248150    13.21910372315179     6.17519746972742
   14      9.04012834069828    11.53387496661605     1.41737568316608
   15      7.65690576941235     9.64941462686044     4.68825604646181
   16     11.28338923687365     7.97343772257761     2.50110587313580
   17      1.29129381998367     0.88759619973519     1.10880695739373
   18      4.57411123264376     2.34313504526226     5.63667640724782
   19      5.57270652603230     4.57171963296937     2.21922181699213
   20      2.11760163914853     5.72908485950893     4.67527721926972
   21      8.48513491856185     1.16724395645852     1.32335523255374
   22     11.99261491801556     2.11666120369106     5.94866011866055
   23     12.93033459240545     4.48513212445838     2.34293749929901
   24      9.35849871141218     5.88640455635041     5.08333671465500
   25      0.99635405195322     7.86325900898747     1.26581089606146
   26      4.32043982769464     9.45877566896788     5.82011600169317
[...]
                       2.4434791186E+01  8.4756713850E+00  4.4275102201E+00
                       1.7684999580E+01  1.1123692519E+01  9.6061142319E+00
                       1.8828362896E+00  1.4859406039E+01  2.3920359296E+00
                       8.1644480480E+00  1.7874495567E+01  1.0998425305E+01
                       1.0785917115E+01  2.2748030906E+01  4.0210614153E+00
                       3.1065257777E+00  2.4375735976E+01  9.3762518892E+00
                       1.4958326576E+01  1.5573145820E+01  2.6829938469E+00
                       2.2107552164E+01  1.7811615428E+01  1.1230029468E+01
                       2.3849403704E+01  2.1951667952E+01  4.4441695833E+00
                       1.7484529903E+01  2.4995480612E+01  9.6886808592E+00
                       1.6833852140E+00  9.3843274443E+00  1.0861510032E+01
                       4.6050465498E+00  4.0920230355E+00  3.7792787132E+00
                       8.5569266403E+00  9.3298480204E+00  1.5627647584E+00
                       1.1413294341E+01  2.3227939081E+00  9.4655180781E+00
                       1.5404882369E+01  9.2295758138E+00  1.1743384260E+01
                       1.6505528068E+01  3.6374182519E+00  5.4712438195E+00
                       2.2207920423E+01  1.0878885488E+01  2.8996029645E+00
                       2.4941942524E+01  3.2771335755E+00  8.8232564488E+00
                       1.1161246228E+00  2.2111763123E+01  1.0844521718E+01
                       3.6982840016E+00  1.7556234530E+01  3.4867974400E+00
                       8.6064063247E+00  2.4714705007E+01  1.8235947151E+00
                       1.0619372471E+01  1.5754918058E+01  9.3916712980E+00
                       1.4832135415E+01  2.2812998184E+01  1.0131738569E+01
                       1.7170648481E+01  1.7524237173E+01  4.8960159203E+00
                       2.2768248270E+01  2.4705292050E+01  2.8066980103E+00
                       2.4241100475E+01  1.6962301405E+01  8.7402849308E+00
                       2.0913684045E+00  3.8833188781E+00  1.3098238664E+01
                       2.6688215263E+01  1.2277367699E+00  4.3187324848E+00
                       4.2250008628E+00  2.6664904003E+01  3.3979885308E+00
                       1.0367161787E+01  1.1191221491E+01  6.4004374702E+00
                       9.5727542823E+00  5.8138329819E+00  5.6642669865E+00
                       1.3625406826E+01  8.0221129912E+00  3.2000310426E+00
                       8.4161010376E+00  3.1844703446E+00  1.2028155414E-01
                       1.1007623935E+01  7.0197537482E+00  1.0579286762E+01
                       6.6367915830E+00  2.4189426373E+00  8.5014578560E+00
                       6.6775177277E+00  1.1893847171E+01  1.0471521576E+01
                       4.7036256262E+00  8.8277764075E+00  6.2348864953E+00
                       2.5718608601E+00  1.3578041116E+01  7.6107778092E+00
                       1.4904497247E-02  1.1033598258E+01  2.0239010480E+00
                       2.4447455263E+01  9.6836328271E+00  7.4844717259E+00
                       2.1908201361E+01  6.0862785749E+00  4.2393190120E+00
                       1.2872865683E+01  1.3087789509E+00  1.9804773751E+00
                       1.7035716899E+01  4.5588666814E+00  1.3892790694E+01
                       1.7541452712E+01  2.6945544914E+01  2.4596777725E+00
                       1.9964054078E+01  1.0050090929E+01  1.2081999694E+01
                       1.7266839211E+01  8.9737766361E+00  7.0478523529E+00
                       1.5343247467E+01  1.3621863881E+01  9.5934868675E+00
                       2.2685293809E+01  1.8192874291E+00  2.5354337493E-01
                       2.3759636402E+01  6.7690210001E+00  1.2732260199E+01
                       1.9837854845E+01  4.8128064246E+00  9.7135942037E+00
                       8.4509125738E+00  1.6031605335E+01  2.0658094838E-01
                       1.0162064923E+01  2.0579824671E+01  1.0915369384E+01
                       6.3449549301E+00  1.7122059732E+01  7.9940916289E+00
                       4.5615782200E+00  1.2705500107E+01  2.6587332095E+00
                       1.0647927418E+00  1.5332628807E+01  1.2739268969E+01
                       2.5944192941E+01  1.4831409723E+01  4.3601402549E+00
                       1.0118942181E+01  2.4957391391E+01  6.5713382319E+00
                       8.5947634625E+00  2.0184041897E+01  3.8665182158E+00
                       1.3126178988E+01  2.3396787046E+01  1.4035849622E+00
                       1.9256309407E+00 -1.7403222331E-01  8.6948224164E+00
                       5.8440857231E+00  2.4840032563E+01  1.1250782946E+01
                       4.0281622686E+00  2.2511729528E+01  6.7111694493E+00
                       1.7507092809E+01  1.3180252759E+01  2.8564781276E+00
                       1.2583362285E+01  1.6452958661E+01  5.0256817119E+00
                       1.5201880021E+01  1.7859989650E+01  1.3797579951E+01
                       2.2028756405E+01  1.5382106425E+01 -3.9662706937E-02
                       2.3236341673E+01  2.0509648197E+01  1.2792506180E+01
                       1.9111711979E+01  1.8464439419E+01  9.9947871345E+00
                       1.6157341203E+01  4.2715647423E-01  1.0531431622E+01
                       1.9270157652E+01  2.3639072691E+01  1.2279614700E+01
                       1.8114517194E+01  2.3989089297E+01  6.4892727699E+00
                       7.2701540762E-02  2.1534554894E+01  3.5395247754E+00
                       2.3925988351E+01  2.2738683250E+01  7.6499158545E+00
                       2.1491321203E+01  1.9612878009E+01  4.0111885020E+00
                       1.6357483338E+00 -1.1050338764E+00  1.5637875791E-01
                       5.9149519523E+00  6.6705678033E+00  1.0740598991E+01
                       2.7092696333E+01  6.3102915928E+00  4.5211039787E+00
                       2.0360842728E+01  1.3146829216E+01  8.6019447266E+00
                       5.0885701506E+00  1.9314397767E+01  1.1923750303E+01
                       1.3530506985E+01  2.1279959624E+01  5.5391721150E+00
                       1.2671377237E+01  1.3236971812E+01  1.5490104447E+00
                       2.0637717166E+01  2.7202188157E+01  9.1238136286E+00
             xred      4.2922227840E-01  4.3729131919E-01  8.3001527935E-01
                       1.4694920571E-01  3.0222188990E-01  1.1331403639E-01
                       1.0449235736E-01  1.6914995763E-01  5.9494479418E-01
                       3.2422322411E-01  6.0030438248E-02  3.3066237368E-01
                       9.1237887549E-01  4.3779083458E-01  8.7849696464E-01
                       6.8369535532E-01  3.3717635902E-01  1.7071225000E-01
                       5.6751932178E-01  2.0054403624E-01  7.0986151966E-01
                       8.3035525380E-01  7.5983551692E-02  3.7230813468E-01
                       4.3290054857E-01  9.3937617602E-01  8.4166739893E-01
                       1.8699343962E-01  8.2735818205E-01  1.4202505357E-01
                       9.6867278553E-02  6.7058514574E-01  6.1577806692E-01
                       3.2512445256E-01  5.6896456436E-01  3.3782014655E-01
                       9.0694308896E-01  9.3972798889E-01  8.6077495262E-01
                       6.5730491076E-01  8.1592283825E-01  1.9866607814E-01
                       5.5605171218E-01  6.8342327043E-01  6.5398755911E-01
                       8.0936427387E-01  5.7296220310E-01  3.4753490902E-01
                       9.2470683971E-02  6.3995942585E-02  1.5432918511E-01
                       3.2595780203E-01  1.7144008310E-01  7.8440055425E-01
                       4.0067969951E-01  3.2712696876E-01  3.0892076422E-01
                       1.5853829862E-01  4.0195277644E-01  6.5257613125E-01
                       6.0048878278E-01  9.5766265852E-02  1.8191163116E-01
                       8.4895125176E-01  1.6850119828E-01  8.2529075404E-01
                       9.1964210729E-01  3.3375350848E-01  3.2366177569E-01
                       6.6964159109E-01  4.2535307070E-01  7.0704914991E-01
                       8.3529948475E-02  5.4745807640E-01  1.7888198436E-01
                       3.2016380679E-01  6.6468884809E-01  8.1267336482E-01
                       4.2294045157E-01  8.4529855069E-01  2.9891937564E-01
                       1.3729859178E-01  8.9861464086E-01  6.9528561950E-01
                       5.7234941100E-01  5.8554858102E-01  1.9815511797E-01
                       8.4068092707E-01  6.7504931775E-01  8.2726621104E-01
                       9.0994005589E-01  8.2795251392E-01  3.2763800934E-01
                       6.7466338651E-01  9.3443788048E-01  7.1589253939E-01
                       7.0533386691E-02  3.4710769537E-01  8.0206162145E-01
                       1.7535600825E-01  1.5477294288E-01  2.7853036304E-01
                       3.2779101616E-01  3.5042993874E-01  1.1549788300E-01
                       4.2754788870E-01  9.6553960812E-02  6.9606812492E-01
                       5.8264663110E-01  3.5395817298E-01  8.6460194893E-01
                       6.1914947918E-01  1.4904307618E-01  4.0103920654E-01
                       8.3877592017E-01  4.1981028123E-01  2.1191692618E-01
                       9.3357116315E-01  1.4379681170E-01  6.4652803710E-01
                       6.0835344970E-02  8.1383881204E-01  8.0340782298E-01
                       1.5366652199E-01  6.4821749695E-01  2.5977674048E-01
                       3.4349707311E-01  9.1530643853E-01  1.3773246327E-01
                       4.1002679175E-01  5.8894431649E-01  6.9340210486E-01
                       5.7363091750E-01  8.5195275236E-01  7.4858734860E-01
                       6.5655063504E-01  6.5940026344E-01  3.6125163483E-01
                       8.7217516706E-01  9.2790187687E-01  2.0768428813E-01
                       9.1975427563E-01  6.4556038767E-01  6.4322271591E-01
                       8.0642760158E-02  1.4574506969E-01  9.6576167340E-01
                       9.9724775554E-01  6.9701820936E-02  3.1382375583E-01
                       1.8155504969E-01  9.8308231242E-01  2.5492598211E-01
                       3.9670932321E-01  4.2088062606E-01  4.7209042032E-01
                       3.6225130535E-01  2.2267421470E-01  4.1691802653E-01
                       5.1573399154E-01  3.0717821727E-01  2.3501546773E-01
                       3.1709385669E-01  1.2455277208E-01  8.0024207674E-03
                       4.1655786254E-01  2.6872917689E-01  7.7914891674E-01
                       2.4936496145E-01  9.5656989124E-02  6.2587790904E-01
                       2.5928996847E-01  4.4372808483E-01  7.7292840087E-01
                       1.8313121180E-01  3.2896128079E-01  4.6042614839E-01
                       1.0772355803E-01  5.0155357820E-01  5.6314152050E-01
                       1.0363000078E-02  4.0527543323E-01  1.5132891051E-01
                       9.2098399225E-01  3.7841124804E-01  5.4920144802E-01
                       8.2316568538E-01  2.4372452119E-01  3.0976929623E-01
                       4.8166895350E-01  5.9917386076E-02  1.4394705827E-01
                       6.3916857834E-01  1.8417789297E-01  1.0218129760E+00
                       6.7906926652E-01  1.0053709658E+00  1.8347169934E-01
                       7.5358709309E-01  3.8824908596E-01  8.8891382885E-01
                       6.5227413864E-01  3.4579560058E-01  5.1815154060E-01
                       5.8446243197E-01  5.1494030397E-01  7.0702272338E-01
                       8.4861846681E-01  8.7389454921E-02  1.5033977561E-02
                       8.9229538890E-01  2.7130136045E-01  9.3552459317E-01
                       7.4432195879E-01  1.9563213008E-01  7.1335149195E-01
                       3.2997576605E-01  5.9623446827E-01  1.6878227291E-02
                       3.9719463581E-01  7.6581005842E-01  8.0672983966E-01
                       2.5176784798E-01  6.3512067344E-01  5.9142125683E-01
                       1.8158342448E-01  4.7084001393E-01  1.9764192895E-01
                       5.2667152136E-02  5.6510373835E-01  9.4173342086E-01
                       9.8173617189E-01  5.6844660588E-01  3.1967710075E-01
                       3.9984664718E-01  9.2605335451E-01  4.8743194141E-01
                       3.3882821766E-01  7.4916735560E-01  2.8741326996E-01
                       5.1109232452E-01  8.7098145693E-01  1.0571924335E-01
                       7.1112544914E-02 -3.7898211655E-03  6.4045311646E-01
                       2.3979381245E-01  9.1832657491E-01  8.3304994710E-01
                       1.7022043733E-01  8.3075812655E-01  4.9833439449E-01
                       6.6534116739E-01  5.0002983951E-01  2.1002112662E-01
                       4.8430048875E-01  6.1592379540E-01  3.7140886924E-01
                       5.8270378368E-01  6.7081367380E-01  1.0177304860E+00
                       8.3636057894E-01  5.8468094907E-01 -3.7979405569E-03
                       8.8514723834E-01  7.7527602873E-01  9.4275422054E-01
                       7.2950389703E-01  6.9617734732E-01  7.3688378636E-01
                       6.0288849225E-01  3.1368985476E-02  7.7341770758E-01
                       7.3992252683E-01  8.8651531329E-01  9.0626824898E-01
                       6.9750812936E-01  8.9774905255E-01  4.7978020730E-01
                       2.1883687429E-02  7.9098568155E-01  2.6508453524E-01
                       9.1327809185E-01  8.5722912231E-01  5.6404953054E-01
                       8.1981846037E-01  7.3991007714E-01  2.9568412163E-01
                       6.0065522131E-02 -3.9068863777E-02  1.1019444506E-02
                       2.2608729994E-01  2.5130676420E-01  7.9186961937E-01
                       1.0169197446E+00  2.5667834490E-01  3.2966503897E-01
                       7.7144630804E-01  5.0195456722E-01  6.3296374078E-01
                       2.0655250448E-01  7.1485124109E-01  8.8169815823E-01
                       5.2398082607E-01  7.9404117265E-01  4.1003422666E-01
                       4.8493663480E-01  4.9759794977E-01  1.1452374878E-01
                       7.9442448300E-01  1.0182546229E+00  6.7413633473E-01
            znucl       57.00000   42.00000    8.00000
 
================================================================================


- Timing analysis has been suppressed with timopt=0



================================================================================

 Suggested references for the acknowledgment of ABINIT usage.

 The users of ABINIT have little formal obligations with respect to the ABINIT group
 (those specified in the GNU General Public License, http://www.gnu.org/copyleft/gpl.txt).
 However, it is common practice in the scientific literature,
 to acknowledge the efforts of people that have made the research possible.
 In this spirit, please find below suggested citations of work written by ABINIT developers,
 corresponding to implementations inside of ABINIT that you have used in the present run.
 Note also that it will be of great value to readers of publications presenting these results,
 to read papers enabling them to understand the theoretical formalism and details
 of the ABINIT implementation.
 For information on why they are suggested, see also https://docs.abinit.org/theory/acknowledgments.
-
- [1] Implementation of the Projector Augmented-Wave Method in the ABINIT code.
- M. Torrent, F. Jollet, F. Bottin, G. Zerah, and X. Gonze Comput. Mat. Science 42, 337, (2008).
- Comment: PAW calculations. Strong suggestion to cite this paper.
- DOI and bibtex: see https://docs.abinit.org/theory/bibliography/#torrent2008
-
- [2] Libxc: A library of exchange and correlation functionals for density functional theory.
- M.A.L. Marques, M.J.T. Oliveira, T. Burnus, Computer Physics Communications 183, 2227 (2012).
- Comment: to be cited when LibXC is used (negative value of ixc)
- Strong suggestion to cite this paper.
- DOI and bibtex: see https://docs.abinit.org/theory/bibliography/#marques2012
-
- [3] Large scale ab initio calculations based on three levels of parallelization
- F. Bottin, S. Leroux, A. Knyazev, G. Zerah, Comput. Mat. Science 42, 329, (2008).
- Comment: in case LOBPCG algorithm is used (wfoptalg=4/14/114).
- Strong suggestion to cite this paper in your publications.
- This paper is also available at http://www.arxiv.org/abs/0707.3405
- DOI and bibtex: see https://docs.abinit.org/theory/bibliography/#bottin2008
-
- [4] The Abinit project: Impact, environment and recent developments.
- Computer Phys. Comm. 248, 107042 (2020).
- X.Gonze, B. Amadon, G. Antonius, F.Arnardi, L.Baguet, J.-M.Beuken,
- J.Bieder, F.Bottin, J.Bouchet, E.Bousquet, N.Brouwer, F.Bruneval,
- G.Brunin, T.Cavignac, J.-B. Charraud, Wei Chen, M.Cote, S.Cottenier,
- J.Denier, G.Geneste, Ph.Ghosez, M.Giantomassi, Y.Gillet, O.Gingras,
- D.R.Hamann, G.Hautier, Xu He, N.Helbig, N.Holzwarth, Y.Jia, F.Jollet,
- W.Lafargue-Dit-Hauret, K.Lejaeghere, M.A.L.Marques, A.Martin, C.Martins,
- H.P.C. Miranda, F.Naccarato, K. Persson, G.Petretto, V.Planes, Y.Pouillon,
- S.Prokhorenko, F.Ricci, G.-M.Rignanese, A.H.Romero, M.M.Schmitt, M.Torrent,
- M.J.van Setten, B.Van Troeye, M.J.Verstraete, G.Zerah and J.W.Zwanzig
- Comment: the fifth generic paper describing the ABINIT project.
- Note that a version of this paper, that is not formatted for Computer Phys. Comm. 
- is available at https://www.abinit.org/sites/default/files/ABINIT20.pdf .
- The licence allows the authors to put it on the Web.
- DOI and bibtex: see https://docs.abinit.org/theory/bibliography/#gonze2020
-
- [5] ABINIT: Overview, and focus on selected capabilities
- J. Chem. Phys. 152, 124102 (2020).
- A. Romero, D.C. Allan, B. Amadon, G. Antonius, T. Applencourt, L.Baguet,
- J.Bieder, F.Bottin, J.Bouchet, E.Bousquet, F.Bruneval,
- G.Brunin, D.Caliste, M.Cote,
- J.Denier, C. Dreyer, Ph.Ghosez, M.Giantomassi, Y.Gillet, O.Gingras,
- D.R.Hamann, G.Hautier, F.Jollet, G. Jomard,
- A.Martin, 
- H.P.C. Miranda, F.Naccarato, G.Petretto, N.A. Pike, V.Planes,
- S.Prokhorenko, T. Rangel, F.Ricci, G.-M.Rignanese, M.Royo, M.Stengel, M.Torrent,
- M.J.van Setten, B.Van Troeye, M.J.Verstraete, J.Wiktor, J.W.Zwanziger, and X.Gonze.
- Comment: a global overview of ABINIT, with focus on selected capabilities .
- Note that a version of this paper, that is not formatted for J. Chem. Phys 
- is available at https://www.abinit.org/sites/default/files/ABINIT20_JPC.pdf .
- The licence allows the authors to put it on the Web.
- DOI and bibtex: see https://docs.abinit.org/theory/bibliography/#romero2020
-
- [6] Recent developments in the ABINIT software package.
- Computer Phys. Comm. 205, 106 (2016).
- X.Gonze, F.Jollet, F.Abreu Araujo, D.Adams, B.Amadon, T.Applencourt,
- C.Audouze, J.-M.Beuken, J.Bieder, A.Bokhanchuk, E.Bousquet, F.Bruneval
- D.Caliste, M.Cote, F.Dahm, F.Da Pieve, M.Delaveau, M.Di Gennaro,
- B.Dorado, C.Espejo, G.Geneste, L.Genovese, A.Gerossier, M.Giantomassi,
- Y.Gillet, D.R.Hamann, L.He, G.Jomard, J.Laflamme Janssen, S.Le Roux,
- A.Levitt, A.Lherbier, F.Liu, I.Lukacevic, A.Martin, C.Martins,
- M.J.T.Oliveira, S.Ponce, Y.Pouillon, T.Rangel, G.-M.Rignanese,
- A.H.Romero, B.Rousseau, O.Rubel, A.A.Shukri, M.Stankovski, M.Torrent,
- M.J.Van Setten, B.Van Troeye, M.J.Verstraete, D.Waroquier, J.Wiktor,
- B.Xu, A.Zhou, J.W.Zwanziger.
- Comment: the fourth generic paper describing the ABINIT project.
- Note that a version of this paper, that is not formatted for Computer Phys. Comm. 
- is available at https://www.abinit.org/sites/default/files/ABINIT16.pdf .
- The licence allows the authors to put it on the Web.
- DOI and bibtex: see https://docs.abinit.org/theory/bibliography/#gonze2016
-
- Proc.   0 individual time (sec): cpu=       1464.1  wall=       1482.2
 
================================================================================
 
 Calculation completed.
.Delivered   0 WARNINGs and   0 COMMENTs to log file.
+Overall time at end (sec) : cpu=      88305.3  wall=      88920.7
