
.Version 9.3.2 of ABINIT 
.(MPI version, prepared for a x86_64_linux_intel19.1 computer) 

.Copyright (C) 1998-2020 ABINIT group . 
 ABINIT comes with ABSOLUTELY NO WARRANTY.
 It is free software, and you are welcome to redistribute it
 under certain conditions (GNU General Public License,
 see ~abinit/COPYING or http://www.gnu.org/copyleft/gpl.txt).

 ABINIT is a project of the Universite Catholique de Louvain,
 Corning Inc. and other collaborators, see ~abinit/doc/developers/contributors.txt .
 Please read https://docs.abinit.org/theory/acknowledgments for suggested
 acknowledgments of the ABINIT effort.
 For more information, see https://www.abinit.org .

.Starting date : Tue 28 Sep 2021.
- ( at 12h17 )
  
- input  file    -> abi.in
- output file    -> abi.out
- root for input  files -> abi-i
- root for output files -> abi-o
 
- inpspheads : Reading pseudopotential header in XML form from 
-   ~/ABINIT_PAW_PBE/paw_pbe_standard/La.xml
- inpspheads : Reading pseudopotential header in XML form from 
-   ~/ABINIT_PAW_PBE/paw_pbe_standard/Mo.xml
- inpspheads : Reading pseudopotential header in XML form from 
-   ~/ABINIT_PAW_PBE/paw_pbe_standard/O.xml
 
 DATASET    1 : space group P1 (#  1); Bravais aP (primitive triclinic)
================================================================================
 Values of the parameters that define the memory need for DATASET  1.
     intxc =       0    ionmov =       2      iscf =       7    lmnmax =      32
     lnmax =       8     mgfft =      75  mpssoang =       4    mqgrid =    3519
     natom =      26  nloc_mem =       2    nspden =       1   nspinor =       1
    nsppol =       1      nsym =       1    n1xccc =       1    ntypat =       3
    occopt =       1   xclevel =       2
-    mband =         104        mffmem =           1         mkmem =           1
       mpw =        1437          nfft =       27000          nkpt =           4
Pmy_natom=         7
 PAW method is used; the additional fine FFT grid is defined by:
   mgfftf=        75    nfftf =     27000
================================================================================
P This job should need less than                      42.662 Mbytes of memory.
  Rough estimation (10% accuracy) of disk space for files :
_ WF disk file :    136.826 Mbytes ; DEN or POT disk file :      0.208 Mbytes.
================================================================================
 
--------------------------------------------------------------------------------
------------- Echo of variables that govern the present computation ------------
--------------------------------------------------------------------------------
-
- outvars: echo of selected default values                                      
-   iomode0 =  0 , fftalg0 =512 , wfoptalg0 = 10
-
- outvars: echo of global parameters not present in the input file              
-  max_nthreads =    1
-
 -outvars: echo values of preprocessed input variables --------
-          iomode           1
            acell      1.0000000000E+00  1.0000000000E+00  1.0000000000E+00 Bohr
              amu      1.38905500E+02  9.59400000E+01  1.59994000E+01
        autoparal           1
           bandpp          26
     densfor_pred           6
           diemac      4.00000000E+00
          dilatmx      1.04000000E+00
             ecut      3.00000000E+01 Hartree
           ecutsm      5.00000000E-01 Hartree
-          fftalg         401
           ionmov           2
             iscf           7
              ixc     -116133
           jdtset        1
              kpt      2.50000000E-01  2.50000000E-01  2.50000000E-01
                      -2.50000000E-01  2.50000000E-01  2.50000000E-01
                       2.50000000E-01 -2.50000000E-01  2.50000000E-01
                      -2.50000000E-01 -2.50000000E-01  2.50000000E-01
         kptrlatt        2    0    0      0    2    0      0    0    2
          kptrlen      2.65091473E+01
P           mkmem           1
            natom          26
            nband         104
           ndtset           1
            ngfft          72      75      75
          ngfftdg          72      75      75
             nkpt           4
-           npfft          15
-           npkpt           4
            nstep         100
             nsym           1
            ntime         150
           ntypat           3
              occ      2.000000  2.000000  2.000000  2.000000  2.000000  2.000000
                       2.000000  2.000000  2.000000  2.000000  2.000000  2.000000
                       2.000000  2.000000  2.000000  2.000000  2.000000  2.000000
                       2.000000  2.000000  2.000000  2.000000  2.000000  2.000000
                       2.000000  2.000000  2.000000  2.000000  2.000000  2.000000
                       2.000000  2.000000  2.000000  2.000000  2.000000  2.000000
                       2.000000  2.000000  2.000000  2.000000  2.000000  2.000000
                       2.000000  2.000000  2.000000  2.000000  2.000000  2.000000
                       2.000000  2.000000  2.000000  2.000000  2.000000  2.000000
                       2.000000  2.000000  2.000000  2.000000  2.000000  2.000000
                       2.000000  2.000000  2.000000  2.000000  2.000000  2.000000
                       2.000000  2.000000  2.000000  2.000000  2.000000  2.000000
                       2.000000  2.000000  2.000000  2.000000  2.000000  2.000000
                       2.000000  2.000000  2.000000  2.000000  2.000000  2.000000
                       2.000000  2.000000  2.000000  2.000000  2.000000  2.000000
                       2.000000  2.000000  2.000000  2.000000  2.000000  2.000000
                       2.000000  2.000000  2.000000  2.000000  2.000000  2.000000
                       2.000000  2.000000
        paral_kgb           1
        pawecutdg      3.00000000E+01 Hartree
         pawmixdg           1
         pawxcdev           0
           prteig           0
            rprim      1.3251232874E+01 -2.9753679958E-01  4.6415214355E-03
                      -2.9753679958E-01  1.3731326993E+01 -1.9627077596E-03
                       4.6415214355E-03 -1.9627077596E-03  1.3570881257E+01
           shiftk      5.00000000E-01  5.00000000E-01  5.00000000E-01
          spgroup           1
           tolmxf      1.00000000E-10
           tolvrs      1.00000000E-20
            typat      1  1  1  1  2  2  2  2  3  3  3  3  3  3  3  3  3  3  3  3
                       3  3  3  3  3  3
           useylm           1
         wfoptalg         114
              wtk        0.25000    0.25000    0.25000    0.25000
           xangst      5.7354264923E+00  6.3070492709E+00  6.2749650809E+00
                       2.5102913132E+00  4.8681535770E+00  9.6667872563E-01
                       7.4120729446E-01  2.3547883026E+00  4.5153277531E+00
                       4.5973666984E+00  6.7228464393E-01  2.6885304867E+00
                       1.3699334637E+00  1.4868393719E+00  1.2045832986E+00
                       4.3075580954E+00  2.1470959244E+00  6.0409068529E+00
                       6.0638652893E+00  4.8662652656E+00  2.4408103633E+00
                       1.9668916991E+00  5.7270972177E+00  4.8026247567E+00
                       1.9520375333E+00  2.8238058657E+00  2.2871534624E+00
                       5.5950287151E+00  1.1903283688E+00  4.8809744838E+00
                       4.7339435765E+00  5.7432873555E+00  1.3080375032E+00
                       1.3642485315E+00  4.3519736835E+00  5.8296886753E+00
                       7.0599280296E+00  8.6062053907E-01  2.3437037687E+00
                       3.1467645231E+00  1.8058315352E+00  4.6242333043E+00
                       1.5998663603E-01  5.3927651823E+00  9.7149544808E-01
                       3.2999254851E+00  6.0893859026E+00  5.9712925344E+00
                       2.3495653399E+00  7.4044363761E+00  1.2814831503E+00
                       9.9658620645E-01 -1.9364333931E-01  4.9728529468E+00
                       5.1310222932E+00  3.7046442905E+00  5.9867306148E+00
                       5.3654426178E+00  3.2490325257E+00  2.4958944685E+00
                       5.0023081870E-01  1.5800988877E+00  6.8521972531E+00
                       5.4645575353E+00  5.9905537039E+00  3.7530498497E+00
                       2.8686328581E+00  5.7960655178E+00  3.2713989808E+00
                       4.9052106386E+00  9.8452056240E-01  1.5752308716E-01
                       2.8985010750E+00  2.5894400455E+00  7.1772037726E+00
                       7.5674176592E+00  4.5297078712E+00  3.5101601248E+00
            xcart      1.0838385326E+01  1.1918595829E+01  1.1857965496E+01
                       4.7437630958E+00  9.1994770333E+00  1.8267580499E+00
                       1.4006787942E+00  4.4499049929E+00  8.5327328535E+00
                       8.6877639924E+00  1.2704338604E+00  5.0805863197E+00
                       2.5887990666E+00  2.8097192165E+00  2.2763325386E+00
                       8.1401051018E+00  4.0574232781E+00  1.1415659546E+01
                       1.1459044703E+01  9.1959086419E+00  4.6124631290E+00
                       3.7168866444E+00  1.0822645278E+01  9.0756455091E+00
                       3.6888163390E+00  5.3362197387E+00  4.3220936679E+00
                       1.0573071977E+01  2.2493946253E+00  9.2237050359E+00
                       8.9458568881E+00  1.0853240204E+01  2.4718326525E+00
                       2.5780561017E+00  8.2240383992E+00  1.1016515036E+01
                       1.3341330494E+01  1.6263371232E+00  4.4289582595E+00
                       5.9465231534E+00  3.4125270437E+00  8.7385345197E+00
                       3.0233092701E-01  1.0190849293E+01  1.8358603362E+00
                       6.2359554257E+00  1.1507271673E+01  1.1284107549E+01
                       4.4400350237E+00  1.3992356919E+01  2.4216521980E+00
                       1.8832749980E+00 -3.6593287876E-01  9.3973301686E+00
                       9.6962269158E+00  7.0007631288E+00  1.1313281293E+01
                       1.0139217129E+01  6.1397816704E+00  4.7165570021E+00
                       9.4529925056E-01  2.9859541607E+00  1.2948776217E+01
                       1.0326517179E+01  1.1320505885E+01  7.0922363790E+00
                       5.4209304776E+00  1.0952976477E+01  6.1820481450E+00
                       9.2695047311E+00  1.8604742351E+00  2.9767549434E-01
                       5.4773732277E+00  4.8933325236E+00  1.3562949530E+01
                       1.4300346909E+01  8.5599073386E+00  6.6332413184E+00
             xred      8.3750884952E-01  8.8625813093E-01  8.7362179524E-01
                       3.7316441631E-01  6.7806784617E-01  1.3457908987E-01
                       1.1281494275E-01  3.2660395225E-01  6.2876169108E-01
                       6.5788694193E-01  1.0682971951E-01  3.7416452938E-01
                       1.9999645056E-01  2.0897868536E-01  1.6769835147E-01
                       6.2093533096E-01  3.0906153995E-01  8.4102011085E-01
                       8.8010059373E-01  6.8882181960E-01  3.3967802030E-01
                       2.9810381099E-01  7.9472688554E-01  6.6877172518E-01
                       2.8713031756E-01  3.9488365440E-01  3.1844180976E-01
                       8.0172593894E-01  1.8128408865E-01  6.7942084532E-01
                       6.9311750644E-01  8.0544476368E-01  1.8202181116E-01
                       2.0781951760E-01  6.0354441116E-01  8.1179216075E-01
                       1.0098367463E+00  1.4036812495E-01  3.2603237022E-01
                       4.5433023099E-01  2.5845794800E-01  6.4379997497E-01
                       3.9451632855E-02  7.4303476349E-01  1.3537334429E-01
                       4.8936061858E-01  8.4875310042E-01  8.3144946980E-01
                       3.5805842845E-01  1.0267938978E+00  1.7847076491E-01
                       1.4135082603E-01 -2.3487664813E-02  6.9241103863E-01
                       7.4324264898E-01  5.2606285040E-01  8.3346569837E-01
                       7.7544926295E-01  4.6398924995E-01  3.4735168069E-01
                       7.5925131957E-02  2.1923718147E-01  9.5416457207E-01
                       7.9800554309E-01  8.4179535847E-01  5.2245572584E-01
                       4.2704879694E-01  8.0698196503E-01  4.5550835952E-01
                       7.0289687482E-01  1.5072502064E-01  2.1716261974E-02
                       4.2120789852E-01  3.6563245184E-01  9.9932435171E-01
                       1.0935307423E+00  6.4715025519E-01  4.8850444664E-01
            znucl       57.00000   42.00000    8.00000
 
================================================================================
 
 chkinp: Checking input parameters for consistency, jdtset=   1.
 
================================================================================
== DATASET  1 ==================================================================
-   mpi_nproc: 60, omp_nthreads: 1 (-1 if OMP is not activated)
 

--- !DatasetInfo
iteration_state: {dtset: 1, }
dimensions: {natom: 26, nkpt: 4, mband: 104, nsppol: 1, nspinor: 1, nspden: 1, mpw: 1437, }
cutoff_energies: {ecut:  30.0, pawecutdg:  30.0, }
electrons: {nelect:   2.08000000E+02, charge:   0.00000000E+00, occopt:   1.00000000E+00, tsmear:   1.00000000E-02, }
meta: {optdriver: 0, ionmov: 2, optcell: 0, iscf: 7, paral_kgb: 1, }
...

 Real(R)+Recip(G) space primitive vectors, cartesian coordinates (Bohr,Bohr^-1):
 R(1)= 13.2512329 -0.2975368  0.0046415  G(1)=  0.0755014  0.0016360 -0.0000256
 R(2)= -0.2975368 13.7313270 -0.0019627  G(2)=  0.0016360  0.0728616  0.0000100
 R(3)=  0.0046415 -0.0019627 13.5708813  G(3)= -0.0000256  0.0000100  0.0736872
 Unit cell volume ucvol=  2.4681153E+03 bohr^3
 Angles (23,13,12)=  9.00168968E+01  8.99601586E+01  9.25275958E+01 degrees
 
 Coarse grid specifications (used for wave-functions):
 
 getcut: wavevector=  0.0000  0.0000  0.0000  ngfft=  72  75  75
         ecut(hartree)=     32.448   => boxcut(ratio)=   2.10130
 
 Fine grid specifications (used for densities):
 
 getcut: wavevector=  0.0000  0.0000  0.0000  ngfft=  72  75  75
         ecut(hartree)=     32.448   => boxcut(ratio)=   2.10130
 
--- Pseudopotential description ------------------------------------------------
- pspini: atom type   1  psp file is ~/ABINIT_PAW_PBE/paw_pbe_standard/La.xml
- pspatm: opening atomic psp file    ~/ABINIT_PAW_PBE/paw_pbe_standard/La.xml
- pspatm : Reading pseudopotential header in XML form from ~/ABINIT_PAW_PBE/paw_pbe_standard/La.xml
 Pseudopotential format is: paw10
 basis_size (lnmax)=  8 (lmn_size= 32), orbitals=   0   0   1   1   2   2   3   3
 Spheres core radius: rc_sph= 2.51647158
 1 radial meshes are used:
  - mesh 1: r(i)=AA*[exp(BB*(i-1))-1], size=1500 , AA= 0.15403E-03 BB= 0.87795E-02
 Shapefunction is SIN type: shapef(r)=[sin(pi*r/rshp)/(pi*r/rshp)]**2
 Radius for shape functions =  2.30494653
 mmax= 1500
 Radial grid used for partial waves is grid 1
 Radial grid used for projectors is grid 1
 Radial grid used for (t)core density is grid 1
 Radial grid used for Vloc is grid 1
 Radial grid used for pseudo valence density is grid 1
 Mesh size for Vloc has been set to 1342 to avoid numerical noise.
 Compensation charge density is not taken into account in XC energy/potential
 pspatm: atomic psp has been read  and splines computed
 
- pspini: atom type   2  psp file is ~/ABINIT_PAW_PBE/paw_pbe_standard/Mo.xml
- pspatm: opening atomic psp file    ~/ABINIT_PAW_PBE/paw_pbe_standard/Mo.xml
- pspatm : Reading pseudopotential header in XML form from ~/ABINIT_PAW_PBE/paw_pbe_standard/Mo.xml
 Pseudopotential format is: paw10
 basis_size (lnmax)=  6 (lmn_size= 18), orbitals=   0   0   1   1   2   2
 Spheres core radius: rc_sph= 2.20000000
 1 radial meshes are used:
  - mesh 1: r(i)=AA*[exp(BB*(i-1))-1], size= 846 , AA= 0.34789E-03 BB= 0.14611E-01
 Shapefunction is SIN type: shapef(r)=[sin(pi*r/rshp)/(pi*r/rshp)]**2
 Radius for shape functions =  1.90088266
 mmax=  846
 Radial grid used for partial waves is grid 1
 Radial grid used for projectors is grid 1
 Radial grid used for (t)core density is grid 1
 Radial grid used for Vloc is grid 1
 Radial grid used for pseudo valence density is grid 1
 Mesh size for Vloc has been set to  751 to avoid numerical noise.
 Compensation charge density is not taken into account in XC energy/potential
 pspatm: atomic psp has been read  and splines computed
 
- pspini: atom type   3  psp file is ~/ABINIT_PAW_PBE/paw_pbe_standard/O.xml
- pspatm: opening atomic psp file    ~/ABINIT_PAW_PBE/paw_pbe_standard/O.xml
- pspatm : Reading pseudopotential header in XML form from ~/ABINIT_PAW_PBE/paw_pbe_standard/O.xml
 Pseudopotential format is: paw10
 basis_size (lnmax)=  4 (lmn_size=  8), orbitals=   0   0   1   1
 Spheres core radius: rc_sph= 1.41465230
 1 radial meshes are used:
  - mesh 1: r(i)=AA*[exp(BB*(i-1))-1], size=2001 , AA= 0.72565E-03 BB= 0.58052E-02
 Shapefunction is SIN type: shapef(r)=[sin(pi*r/rshp)/(pi*r/rshp)]**2
 Radius for shape functions =  1.20231231
 mmax= 2001
 Radial grid used for partial waves is grid 1
 Radial grid used for projectors is grid 1
 Radial grid used for (t)core density is grid 1
 Radial grid used for Vloc is grid 1
 Radial grid used for pseudo valence density is grid 1
 Mesh size for Vloc has been set to 1762 to avoid numerical noise.
 Compensation charge density is not taken into account in XC energy/potential
 pspatm: atomic psp has been read  and splines computed
 
   8.97881771E+04                                ecore*ucvol(ha*bohr**3)
--------------------------------------------------------------------------------
 
_setup2: Arith. and geom. avg. npw (full set) are    1435.250    1435.249
 
================================================================================
 
=== [ionmov= 2] Broyden-Fletcher-Goldfard-Shanno method (forces)            
================================================================================
 
--- Iteration: (  1/150) Internal Cycle: (1/1)
--------------------------------------------------------------------------------
 
---SELF-CONSISTENT-FIELD CONVERGENCE--------------------------------------------

--- !BeginCycle
iteration_state: {dtset: 1, itime: 1, icycle: 1, }
solver: {iscf: 7, nstep: 100, nline: 4, wfoptalg: 114, }
tolerances: {tolvrs: 1.00E-20, }
...
 
     iter   Etot(hartree)      deltaE(h)  residm     vres2
 ETOT  1  -688.88154801713    -6.889E+02 1.546E-02 2.558E+04
 ETOT  2  -685.11829522193     3.763E+00 7.691E-04 5.380E+04
 ETOT  3  -693.52503150288    -8.407E+00 1.261E-03 3.220E+03
 ETOT  4  -694.21247177086    -6.874E-01 2.030E-05 8.085E+02
 ETOT  5  -694.07392440851     1.385E-01 1.117E-04 1.060E+03
 ETOT  6  -694.24944760431    -1.755E-01 5.959E-06 3.989E+02
 ETOT  7  -694.32870855139    -7.926E-02 5.928E-06 1.046E+02
 ETOT  8  -694.34583644288    -1.713E-02 2.255E-06 2.854E+01
 ETOT  9  -694.35167805129    -5.842E-03 6.973E-07 3.232E+00
 ETOT 10  -694.35193688264    -2.588E-04 4.393E-07 1.076E+00
 ETOT 11  -694.35216194455    -2.251E-04 1.211E-07 1.486E-01
 ETOT 12  -694.35219535124    -3.341E-05 3.046E-08 1.823E-02
 ETOT 13  -694.35219785661    -2.505E-06 5.698E-09 9.727E-03
 ETOT 14  -694.35219967169    -1.815E-06 3.820E-10 1.345E-03
 ETOT 15  -694.35219982811    -1.564E-07 2.793E-10 4.202E-04
 ETOT 16  -694.35219987367    -4.556E-08 2.217E-10 1.450E-04
 ETOT 17  -694.35219990453    -3.086E-08 2.410E-11 2.919E-05
 ETOT 18  -694.35219991110    -6.566E-09 1.060E-11 4.378E-06
 ETOT 19  -694.35219991179    -6.949E-10 2.317E-12 1.429E-06
 ETOT 20  -694.35219991209    -2.966E-10 5.928E-13 2.780E-07
 ETOT 21  -694.35219991212    -2.638E-11 2.406E-13 1.641E-07
 ETOT 22  -694.35219991215    -3.831E-11 8.091E-14 3.918E-08
 ETOT 23  -694.35219991216    -1.035E-11 5.006E-15 6.921E-09
 ETOT 24  -694.35219991217    -1.705E-12 5.480E-15 1.581E-09
 ETOT 25  -694.35219991217    -6.821E-13 1.081E-15 9.735E-10
 ETOT 26  -694.35219991217     6.821E-13 6.385E-16 4.452E-10
 ETOT 27  -694.35219991217    -2.274E-13 1.561E-16 1.243E-10
 ETOT 28  -694.35219991217     3.411E-13 3.800E-17 1.870E-11
 ETOT 29  -694.35219991217     0.000E+00 9.489E-18 4.294E-12
 ETOT 30  -694.35219991217    -5.684E-13 1.649E-18 2.738E-12
 ETOT 31  -694.35219991217     2.274E-13 2.935E-18 1.122E-12
 ETOT 32  -694.35219991217     2.274E-13 6.150E-19 2.616E-13
 ETOT 33  -694.35219991217     1.137E-13 1.145E-19 8.487E-14
 ETOT 34  -694.35219991217    -1.137E-13 3.603E-20 3.172E-14
 ETOT 35  -694.35219991217    -4.547E-13 1.656E-20 4.789E-15
 ETOT 36  -694.35219991217     9.095E-13 1.812E-21 1.726E-15
 ETOT 37  -694.35219991217    -2.274E-13 7.549E-22 4.019E-16
 ETOT 38  -694.35219991217    -4.547E-13 5.176E-22 3.034E-16
 ETOT 39  -694.35219991217     0.000E+00 1.196E-22 7.767E-17
 ETOT 40  -694.35219991217    -3.411E-13 8.116E-24 1.884E-17
 ETOT 41  -694.35219991217     1.137E-13 4.869E-24 4.529E-18
 ETOT 42  -694.35219991217    -2.274E-13 1.117E-24 4.114E-18
 ETOT 43  -694.35219991217     1.137E-13 3.601E-25 5.519E-19
 ETOT 44  -694.35219991217     3.411E-13 9.207E-26 3.738E-19
 ETOT 45  -694.35219991217    -1.137E-13 2.543E-26 4.702E-20
 ETOT 46  -694.35219991217    -1.137E-13 5.878E-27 1.689E-20
 ETOT 47  -694.35219991217     1.137E-13 1.242E-27 5.810E-21
 
 At SCF step   47       vres2   =  5.81E-21 < tolvrs=  1.00E-20 =>converged.
 
 Cartesian components of stress tensor (hartree/bohr^3)
  sigma(1 1)= -4.09760999E-05  sigma(3 2)= -1.12853710E-05
  sigma(2 2)=  5.92673516E-05  sigma(3 1)=  3.59217895E-06
  sigma(3 3)=  9.42705060E-05  sigma(2 1)=  4.46904312E-05
 

--- !ResultsGS
iteration_state: {dtset: 1, itime: 1, icycle: 1, }
comment   : Summary of ground state results
lattice_vectors:
- [ 13.2512329,  -0.2975368,   0.0046415, ]
- [ -0.2975368,  13.7313270,  -0.0019627, ]
- [  0.0046415,  -0.0019627,  13.5708813, ]
lattice_lengths: [  13.25457,   13.73455,   13.57088, ]
lattice_angles: [ 90.017,  89.960,  92.528, ] # degrees, (23, 13, 12)
lattice_volume:   2.4681153E+03
convergence: {deltae:  1.137E-13, res2:  5.810E-21, residm:  1.242E-27, diffor: null, }
etotal    :  -6.94352200E+02
entropy   :   0.00000000E+00
fermie    :   1.17182240E-01
cartesian_stress_tensor: # hartree/bohr^3
- [ -4.09760999E-05,   4.46904312E-05,   3.59217895E-06, ]
- [  4.46904312E-05,   5.92673516E-05,  -1.12853710E-05, ]
- [  3.59217895E-06,  -1.12853710E-05,   9.42705060E-05, ]
pressure_GPa:  -1.1039E+00
xred      :
- [  8.3751E-01,   8.8626E-01,   8.7362E-01, La]
- [  3.7316E-01,   6.7807E-01,   1.3458E-01, La]
- [  1.1281E-01,   3.2660E-01,   6.2876E-01, La]
- [  6.5789E-01,   1.0683E-01,   3.7416E-01, La]
- [  2.0000E-01,   2.0898E-01,   1.6770E-01, Mo]
- [  6.2094E-01,   3.0906E-01,   8.4102E-01, Mo]
- [  8.8010E-01,   6.8882E-01,   3.3968E-01, Mo]
- [  2.9810E-01,   7.9473E-01,   6.6877E-01, Mo]
- [  2.8713E-01,   3.9488E-01,   3.1844E-01,  O]
- [  8.0173E-01,   1.8128E-01,   6.7942E-01,  O]
- [  6.9312E-01,   8.0544E-01,   1.8202E-01,  O]
- [  2.0782E-01,   6.0354E-01,   8.1179E-01,  O]
- [  1.0098E+00,   1.4037E-01,   3.2603E-01,  O]
- [  4.5433E-01,   2.5846E-01,   6.4380E-01,  O]
- [  3.9452E-02,   7.4303E-01,   1.3537E-01,  O]
- [  4.8936E-01,   8.4875E-01,   8.3145E-01,  O]
- [  3.5806E-01,   1.0268E+00,   1.7847E-01,  O]
- [  1.4135E-01,  -2.3488E-02,   6.9241E-01,  O]
- [  7.4324E-01,   5.2606E-01,   8.3347E-01,  O]
- [  7.7545E-01,   4.6399E-01,   3.4735E-01,  O]
- [  7.5925E-02,   2.1924E-01,   9.5416E-01,  O]
- [  7.9801E-01,   8.4180E-01,   5.2246E-01,  O]
- [  4.2705E-01,   8.0698E-01,   4.5551E-01,  O]
- [  7.0290E-01,   1.5073E-01,   2.1716E-02,  O]
- [  4.2121E-01,   3.6563E-01,   9.9932E-01,  O]
- [  1.0935E+00,   6.4715E-01,   4.8850E-01,  O]
cartesian_forces: # hartree/bohr
- [ -4.07039315E-05,   1.31165993E-04,   9.41069588E-05, ]
- [ -8.77554568E-05,  -2.19202006E-05,  -4.96790689E-06, ]
- [  2.01590135E-04,  -1.05243978E-05,  -1.61172736E-05, ]
- [ -1.43096190E-05,   3.22893621E-05,   2.22313540E-04, ]
- [  1.65065273E-04,   1.86862339E-04,   3.09484548E-05, ]
- [ -5.81309663E-06,  -1.83172961E-04,   8.41875911E-06, ]
- [ -4.48344297E-06,   1.29358942E-04,   4.49933732E-05, ]
- [ -1.01436784E-04,  -2.22440577E-04,  -8.65602161E-05, ]
- [  2.16502916E-05,  -1.18835023E-05,  -1.28135473E-04, ]
- [ -9.96685288E-05,   6.06403263E-06,   4.11661200E-05, ]
- [  1.03642872E-04,   6.58699858E-05,  -4.01827507E-05, ]
- [  2.33962479E-06,  -5.43178350E-05,   9.03919067E-05, ]
- [ -7.36765632E-05,  -9.19975658E-05,  -7.92010748E-06, ]
- [  5.30764433E-05,  -1.87100939E-05,   1.86230628E-04, ]
- [  1.34878798E-04,   3.96043199E-05,   5.76670339E-05, ]
- [  5.90327319E-05,   5.02638054E-05,  -2.93813193E-05, ]
- [ -5.28199495E-05,   1.15481538E-04,  -1.42537146E-04, ]
- [ -2.07270652E-06,  -1.04282046E-04,  -1.24836930E-04, ]
- [ -1.92453423E-04,  -2.35119096E-04,   8.52125817E-05, ]
- [ -7.11849387E-05,   6.93237618E-05,  -1.45909594E-04, ]
- [  1.22709803E-04,   7.69806436E-05,   1.56695130E-04, ]
- [  3.72400378E-05,   7.00335632E-05,  -1.30462551E-05, ]
- [  5.50154352E-05,  -1.25403385E-04,   1.46983140E-05, ]
- [ -1.73540970E-04,   2.42031490E-04,  -1.76363677E-04, ]
- [  1.44210360E-04,  -1.66387458E-04,  -2.08069487E-04, ]
- [ -1.80532395E-04,   3.08293408E-05,   9.11853360E-05, ]
force_length_stats: {min:   8.03848565E-05, max:   3.46121160E-04, mean:   1.79512232E-04, }
...

 Integrated electronic density in atomic spheres:
 ------------------------------------------------
 Atom  Sphere_radius  Integrated_density
    1        2.51647          7.84714490
    2        2.51647          7.86928262
    3        2.51647          7.85999826
    4        2.51647          7.83408514
    5        2.20000         11.49757721
    6        2.20000         11.35092327
    7        2.20000         11.37896714
    8        2.20000         11.48596650
    9        1.41465          4.55992093
   10        1.41465          4.55873832
   11        1.41465          4.55570365
   12        1.41465          4.54539661
   13        1.41465          4.54132489
   14        1.41465          4.52648580
   15        1.41465          4.54335521
   16        1.41465          4.54357024
   17        1.41465          4.56493139
   18        1.41465          4.55602202
   19        1.41465          4.51596647
   20        1.41465          4.52489668
   21        1.41465          4.54942073
   22        1.41465          4.54766402
   23        1.41465          4.55649229
   24        1.41465          4.53667865
   25        1.41465          4.56517673
   26        1.41465          4.56206606
 
 PAW TEST:
 ==== Compensation charge inside spheres ============
 The following values must be close to each other ...
 Compensation charge over spherical meshes =     21.029419446857542
 Compensation charge over fft grid         =     21.029671986253607
 
 ==== Results concerning PAW augmentation regions ====
 
 Total pseudopotential strength Dij (hartree):
 Atom #  1
   0.47686  -0.11803  -0.00075  -0.00024   0.00109  -0.00005  -0.00001   0.00008  -0.00001   0.00003  -0.00004   0.00001 ...
  -0.11803   0.02327   0.00014   0.00005  -0.00021  -0.00005  -0.00001   0.00007   0.00000   0.00000  -0.00000   0.00000 ...
  -0.00075   0.00014  -0.17992   0.00001  -0.00003   0.04341   0.00013   0.00006   0.00030  -0.00007   0.00013   0.00001 ...
  -0.00024   0.00005   0.00001  -0.17992  -0.00002   0.00013   0.04318   0.00014   0.00001  -0.00021  -0.00007   0.00031 ...
   0.00109  -0.00021  -0.00003  -0.00002  -0.17988   0.00006   0.00014   0.04351  -0.00021   0.00001  -0.00017  -0.00008 ...
  -0.00005  -0.00005   0.04341   0.00013   0.00006   0.31990   0.00004   0.00000   0.00012  -0.00002   0.00005   0.00003 ...
  -0.00001  -0.00001   0.00013   0.04318   0.00014   0.00004   0.31985   0.00003   0.00003  -0.00006  -0.00000   0.00012 ...
   0.00008   0.00007   0.00006   0.00014   0.04351   0.00000   0.00003   0.31995  -0.00007   0.00003  -0.00007  -0.00003 ...
  -0.00001   0.00000   0.00030   0.00001  -0.00021   0.00012   0.00003  -0.00007  -0.05751   0.00001   0.00000   0.00001 ...
   0.00003   0.00000  -0.00007  -0.00021   0.00001  -0.00002  -0.00006   0.00003   0.00001  -0.05756   0.00001   0.00000 ...
  -0.00004  -0.00000   0.00013  -0.00007  -0.00017   0.00005  -0.00000  -0.00007   0.00000   0.00001  -0.05756   0.00001 ...
   0.00001   0.00000   0.00001   0.00031  -0.00008   0.00003   0.00012  -0.00003   0.00001   0.00000   0.00001  -0.05754 ...
   ...  only 12  components have been written...
 Atom # 26
   0.61755  -1.77152  -0.00025   0.00022   0.00047   0.00182  -0.00159  -0.00334
  -1.77152   5.14031   0.00064  -0.00057  -0.00120  -0.00489   0.00418   0.00881
  -0.00025   0.00064  -0.31130   0.00010   0.00005   0.97442  -0.00054  -0.00024
   0.00022  -0.00057   0.00010  -0.31160  -0.00073  -0.00054   0.97601   0.00378
   0.00047  -0.00120   0.00005  -0.00073  -0.31193  -0.00024   0.00378   0.97769
   0.00182  -0.00489   0.97442  -0.00054  -0.00024  -0.30710   0.00279   0.00118
  -0.00159   0.00418  -0.00054   0.97601   0.00378   0.00279  -0.31513  -0.01889
  -0.00334   0.00881  -0.00024   0.00378   0.97769   0.00118  -0.01889  -0.32336
 
 
 Augmentation waves occupancies Rhoij:
 Atom #  1
   2.02465  -0.08088   0.00592   0.00108  -0.01084  -0.00334  -0.00084   0.00566   0.00559   0.00620  -0.00820   0.00989 ...
  -0.08088   0.24272  -0.02769  -0.00682   0.04694   0.00837   0.00299  -0.01309  -0.01369  -0.00786   0.01239  -0.01822 ...
   0.00592  -0.02769   2.04118  -0.00694   0.00025  -0.01935   0.00368   0.00045   0.03998  -0.01182   0.02182   0.02136 ...
   0.00108  -0.00682  -0.00694   2.05483  -0.00686   0.00368  -0.02716   0.00403   0.02309  -0.01042  -0.00040   0.02933 ...
  -0.01084   0.04694   0.00025  -0.00686   2.04602   0.00045   0.00402  -0.02155  -0.01510   0.02206  -0.01871  -0.00655 ...
  -0.00334   0.00837  -0.01935   0.00368   0.00045   0.01287  -0.00118  -0.00053  -0.01056   0.00367  -0.00630  -0.00609 ...
  -0.00084   0.00299   0.00368  -0.02716   0.00402  -0.00118   0.01599  -0.00169  -0.00676   0.00205   0.00034  -0.00700 ...
   0.00566  -0.01309   0.00045   0.00403  -0.02155  -0.00053  -0.00169   0.01458   0.00308  -0.00642   0.00426   0.00202 ...
   0.00559  -0.01369   0.03998   0.02309  -0.01510  -0.01056  -0.00676   0.00308   0.08336  -0.01340   0.00528  -0.00758 ...
   0.00620  -0.00786  -0.01182  -0.01042   0.02206   0.00367   0.00205  -0.00642  -0.01340   0.10743  -0.01166  -0.01022 ...
  -0.00820   0.01239   0.02182  -0.00040  -0.01871  -0.00630   0.00034   0.00426   0.00528  -0.01166   0.10801  -0.01018 ...
   0.00989  -0.01822   0.02136   0.02933  -0.00655  -0.00609  -0.00700   0.00202  -0.00758  -0.01022  -0.01018   0.10761 ...
   ...  only 12  components have been written...
 Atom # 26
   1.99518   0.03100  -0.00377  -0.00555  -0.01249   0.00103  -0.00135  -0.00307
   0.03100   0.00122   0.00359  -0.00301  -0.00665   0.00012  -0.00015  -0.00028
  -0.00377   0.00359   1.74120   0.00475   0.00371   0.02944  -0.00045   0.00057
  -0.00555  -0.00301   0.00475   1.74192   0.03220  -0.00044   0.03081   0.00676
  -0.01249  -0.00665   0.00371   0.03220   1.76922   0.00058   0.00675   0.03402
   0.00103   0.00012   0.02944  -0.00044   0.00058   0.00065  -0.00003  -0.00000
  -0.00135  -0.00015  -0.00045   0.03081   0.00675  -0.00003   0.00077   0.00033
  -0.00307  -0.00028   0.00057   0.00676   0.03402  -0.00000   0.00033   0.00092
 
 
 
---OUTPUT-----------------------------------------------------------------------
 
 Cartesian coordinates (xcart) [bohr]
  1.08383853256835E+01  1.19185958287052E+01  1.18579654963294E+01
  4.74376309576197E+00  9.19947703333198E+00  1.82675804992886E+00
  1.40067879421895E+00  4.44990499291576E+00  8.53273285351921E+00
  8.68776399236450E+00  1.27043386037288E+00  5.08058631970621E+00
  2.58879906663192E+00  2.80971921653473E+00  2.27633253857117E+00
  8.14010510182681E+00  4.05742327808587E+00  1.14156595462620E+01
  1.14590447034328E+01  9.19590864188553E+00  4.61246312898828E+00
  3.71688664441439E+00  1.08226452778876E+01  9.07564550910082E+00
  3.68881633897232E+00  5.33621973868230E+00  4.32209366789994E+00
  1.05730719771006E+01  2.24939462527902E+00  9.22370503590841E+00
  8.94585688807277E+00  1.08532402043563E+01  2.47183265250504E+00
  2.57805610171442E+00  8.22403839924609E+00  1.10165150363816E+01
  1.33413304938435E+01  1.62633712318412E+00  4.42895825947803E+00
  5.94652315342309E+00  3.41252704367881E+00  8.73853451966866E+00
  3.02330927012564E-01  1.01908492934522E+01  1.83586033622080E+00
  6.23595542572872E+00  1.15072716733058E+01  1.12841075493478E+01
  4.44003502369059E+00  1.39923569192825E+01  2.42165219797549E+00
  1.88327499799357E+00 -3.65932878755544E-01  9.39733016861914E+00
  9.69622691584992E+00  7.00076312878124E+00  1.13132812934185E+01
  1.01392171294035E+01  6.13978167040731E+00  4.71655700213360E+00
  9.45299250564463E-01  2.98595416068310E+00  1.29487762168426E+01
  1.03265171790453E+01  1.13205058847795E+01  7.09223637903104E+00
  5.42093047763938E+00  1.09529764769040E+01  6.18204814502700E+00
  9.26950473112399E+00  1.86047423512688E+00  2.97675494342864E-01
  5.47737322765847E+00  4.89333252360568E+00  1.35629495301800E+01
  1.43003469090487E+01  8.55990733862307E+00  6.63324131843520E+00
 Reduced coordinates (xred)
  8.37508849517851E-01  8.86258130931560E-01  8.73621795239332E-01
  3.73164416305543E-01  6.78067846167130E-01  1.34579089870544E-01
  1.12814942746158E-01  3.26603952246308E-01  6.28761691082056E-01
  6.57886941932248E-01  1.06829719514718E-01  3.74164529384948E-01
  1.99996450556405E-01  2.08978685363707E-01  1.67698351473249E-01
  6.20935330958066E-01  3.09061539950551E-01  8.41020110847118E-01
  8.80100593726342E-01  6.88821819597112E-01  3.39678020301975E-01
  2.98103810992057E-01  7.94726885542401E-01  6.68771725180578E-01
  2.87130317556663E-01  3.94883654402578E-01  3.18441809764146E-01
  8.01725938936280E-01  1.81284088653197E-01  6.79420845324695E-01
  6.93117506443524E-01  8.05444763679719E-01  1.82021811158813E-01
  2.07819517596298E-01  6.03544411157838E-01  8.11792160749548E-01
  1.00983674629938E+00  1.40368124950758E-01  3.26032370217944E-01
  4.54330230991122E-01  2.58457947995485E-01  6.43799974968093E-01
  3.94516328553241E-02  7.43034763488551E-01  1.35373344289118E-01
  4.89360618579710E-01  8.48753100424349E-01  8.31449469796421E-01
  3.58058428447619E-01  1.02679389775518E+00  1.78470764910521E-01
  1.41350826029621E-01 -2.34876648131487E-02  6.92411038629327E-01
  7.43242648984676E-01  5.26062850396677E-01  8.33465698367620E-01
  7.75449262951850E-01  4.63989249954301E-01  3.47351680688417E-01
  7.59251319567298E-02  2.19237181466965E-01  9.54164572069108E-01
  7.98005543087226E-01  8.41795358470355E-01  5.22455725842910E-01
  4.27048796944878E-01  8.06981965032287E-01  4.55508359520568E-01
  7.02896874820551E-01  1.50725020639633E-01  2.17162619742149E-02
  4.21207898520505E-01  3.65632451841551E-01  9.99324351710536E-01
  1.09353074226291E+00  6.47150255191225E-01  4.88504446639299E-01
 Cartesian forces (fcart) [Ha/bohr]; max,rms= 2.42031E-04 1.11329E-04 (free atoms)
 -4.07039315006464E-05  1.31165993407803E-04  9.41069587570821E-05
 -8.77554568431379E-05 -2.19202005810898E-05 -4.96790689418137E-06
  2.01590135308507E-04 -1.05243978011118E-05 -1.61172735822731E-05
 -1.43096189772497E-05  3.22893620535567E-05  2.22313539591209E-04
  1.65065273283768E-04  1.86862339123132E-04  3.09484547501754E-05
 -5.81309663165582E-06 -1.83172960713276E-04  8.41875910816502E-06
 -4.48344297476801E-06  1.29358941835178E-04  4.49933731512970E-05
 -1.01436783972292E-04 -2.22440576759570E-04 -8.65602161337300E-05
  2.16502915933672E-05 -1.18835023003638E-05 -1.28135472627865E-04
 -9.96685287546111E-05  6.06403262729152E-06  4.11661199860679E-05
  1.03642871779369E-04  6.58699858084644E-05 -4.01827507475074E-05
  2.33962478551711E-06 -5.43178350374976E-05  9.03919066679403E-05
 -7.36765632173700E-05 -9.19975657987341E-05 -7.92010747532074E-06
  5.30764433252232E-05 -1.87100938676559E-05  1.86230628108920E-04
  1.34878797886687E-04  3.96043198710873E-05  5.76670338692405E-05
  5.90327318655426E-05  5.02638053740956E-05 -2.93813193090436E-05
 -5.28199494870042E-05  1.15481537647954E-04 -1.42537145617647E-04
 -2.07270652305248E-06 -1.04282046219504E-04 -1.24836929862168E-04
 -1.92453422991543E-04 -2.35119095761101E-04  8.52125816984228E-05
 -7.11849386732591E-05  6.93237618033590E-05 -1.45909594222913E-04
  1.22709802980926E-04  7.69806436214667E-05  1.56695130216738E-04
  3.72400378438019E-05  7.00335631706554E-05 -1.30462550867586E-05
  5.50154352207215E-05 -1.25403384544861E-04  1.46983139787252E-05
 -1.73540969903021E-04  2.42031490283013E-04 -1.76363677499315E-04
  1.44210359853108E-04 -1.66387458009738E-04 -2.08069486827425E-04
 -1.80532395276928E-04  3.08293407674454E-05  9.11853360021645E-05
 Reduced forces (fred)
  5.77967185641887E-04 -1.81300935884490E-03 -1.27666799407070E-03
  1.15636898694097E-03  2.74873213598489E-04  6.77831704432533E-05
 -2.67437441510928E-03  2.04462797796166E-04  2.17769264720949E-04
  1.98195493796970E-04 -4.47197090464893E-04 -3.01686085464178E-03
 -2.13186360131957E-03 -2.51669414519813E-03 -4.20397202344999E-04
  2.24909248359341E-05  2.51349473315626E-03 -1.14582513567316E-04
  9.76913547822207E-05 -1.77751561018902E-03 -6.10325020594744E-04
  1.27837996023283E-03  3.02405322744138E-03  1.17473264989641E-03
 -2.89834091400278E-04  1.69366521888084E-04  1.73878746971386E-03
  1.32234408420141E-03 -1.12841472900630E-04 -5.58186010607790E-04
 -1.35361057584803E-03 -8.73723612763254E-04  5.44963561897271E-04
 -4.75840236410195E-05  7.46729491798456E-04 -1.22681530144373E-03
  9.48969396625401E-04  1.24131162482710E-03  1.07644245101851E-04
 -7.09759645545280E-04  2.73072128338298E-04 -2.52759681838754E-03
 -1.77579428079609E-03 -5.03575277080839E-04 -7.83140780211316E-04
 -7.67164771349114E-04 -6.72682004318634E-04  3.98555046988941E-04
  7.34951047401784E-04 -1.60171039254041E-03  1.93482649933351E-03
 -2.98239618282270E-06  1.43106915122301E-03  1.69395209698443E-03
  2.47989302622550E-03  3.17140245795437E-03 -1.15597802122137E-03
  9.64591812235359E-04 -9.73373758404182E-04  1.98058824616723E-03
 -1.60387890473646E-03 -1.02022816086449E-03 -2.12690947540340E-03
 -4.72578296995469E-04 -9.50599080664203E-04  1.77013783615521E-04
 -7.66402688025835E-04  1.73835284418443E-03 -1.99970559201876E-04
  2.37246367622813E-03 -3.37539451072591E-03  2.39469105661537E-03
 -1.95950569406788E-03  2.32722010274280E-03  2.82269037351860E-03
  2.40102643586874E-03 -4.76863819989346E-04 -1.23656691330062E-03
 Total energy (etotal) [Ha]= -6.94352199912167E+02
 
--- Iteration: (  2/150) Internal Cycle: (1/1)
--------------------------------------------------------------------------------
 
---SELF-CONSISTENT-FIELD CONVERGENCE--------------------------------------------

--- !BeginCycle
iteration_state: {dtset: 1, itime: 2, icycle: 1, }
solver: {iscf: 7, nstep: 100, nline: 4, wfoptalg: 114, }
tolerances: {tolvrs: 1.00E-20, }
...
 
     iter   Etot(hartree)      deltaE(h)  residm     vres2
 ETOT  1  -694.35220055225    -6.944E+02 1.558E-12 1.870E+01
 ETOT  2  -694.35220070066    -1.484E-07 1.806E-12 1.707E+00
 ETOT  3  -694.35220049185     2.088E-07 7.301E-10 1.670E-03
 ETOT  4  -694.35220049292    -1.070E-09 1.584E-09 1.291E-03
 ETOT  5  -694.35220069113    -1.982E-07 1.721E-10 2.890E-04
 ETOT  6  -694.35220075288    -6.175E-08 4.623E-11 3.641E-05
 ETOT  7  -694.35220075897    -6.091E-09 2.283E-11 9.656E-06
 ETOT  8  -694.35220076035    -1.389E-09 3.894E-12 5.008E-06
 ETOT  9  -694.35220076130    -9.468E-10 2.164E-12 3.770E-07
 ETOT 10  -694.35220076134    -4.081E-11 2.457E-13 3.284E-07
 ETOT 11  -694.35220076141    -6.776E-11 5.311E-14 6.375E-08
 ETOT 12  -694.35220076142    -7.049E-12 1.013E-14 2.316E-08
 ETOT 13  -694.35220076142    -6.708E-12 8.216E-15 3.801E-09
 ETOT 14  -694.35220076142     9.095E-13 1.186E-15 1.257E-09
 ETOT 15  -694.35220076142    -1.478E-12 1.028E-15 3.747E-10
 ETOT 16  -694.35220076142     5.684E-13 1.465E-16 4.725E-11
 ETOT 17  -694.35220076142    -4.547E-13 1.541E-17 1.666E-11
 ETOT 18  -694.35220076142     1.137E-13 7.679E-18 1.852E-12
 ETOT 19  -694.35220076142    -3.411E-13 1.080E-18 1.001E-12
 ETOT 20  -694.35220076142     2.274E-13 4.808E-19 2.590E-13
 ETOT 21  -694.35220076142     0.000E+00 1.496E-19 1.616E-13
 ETOT 22  -694.35220076142     1.137E-13 2.940E-20 1.150E-14
 ETOT 23  -694.35220076142    -1.137E-13 6.907E-21 8.874E-15
 ETOT 24  -694.35220076142     1.137E-13 4.305E-21 2.408E-15
 ETOT 25  -694.35220076142     0.000E+00 1.582E-21 7.346E-16
 ETOT 26  -694.35220076142    -3.411E-13 2.213E-22 3.984E-16
 ETOT 27  -694.35220076142     9.095E-13 2.851E-22 3.777E-17
 ETOT 28  -694.35220076142    -5.684E-13 1.107E-23 1.949E-17
 ETOT 29  -694.35220076142    -3.411E-13 2.580E-24 6.116E-18
 ETOT 30  -694.35220076142     3.411E-13 1.266E-24 2.949E-18
 ETOT 31  -694.35220076142     1.137E-13 2.957E-25 3.167E-19
 ETOT 32  -694.35220076142    -5.684E-13 8.612E-26 1.806E-19
 ETOT 33  -694.35220076142     3.411E-13 3.786E-26 1.878E-20
 ETOT 34  -694.35220076142     0.000E+00 3.440E-27 4.185E-21
 
 At SCF step   34       vres2   =  4.18E-21 < tolvrs=  1.00E-20 =>converged.
 
 Cartesian components of stress tensor (hartree/bohr^3)
  sigma(1 1)= -4.10757630E-05  sigma(3 2)= -1.12934576E-05
  sigma(2 2)=  5.90489049E-05  sigma(3 1)=  3.52099100E-06
  sigma(3 3)=  9.40251385E-05  sigma(2 1)=  4.47739519E-05
 

--- !ResultsGS
iteration_state: {dtset: 1, itime: 2, icycle: 1, }
comment   : Summary of ground state results
lattice_vectors:
- [ 13.2512329,  -0.2975368,   0.0046415, ]
- [ -0.2975368,  13.7313270,  -0.0019627, ]
- [  0.0046415,  -0.0019627,  13.5708813, ]
lattice_lengths: [  13.25457,   13.73455,   13.57088, ]
lattice_angles: [ 90.017,  89.960,  92.528, ] # degrees, (23, 13, 12)
lattice_volume:   2.4681153E+03
convergence: {deltae:  0.000E+00, res2:  4.185E-21, residm:  3.440E-27, diffor: null, }
etotal    :  -6.94352201E+02
entropy   :   0.00000000E+00
fermie    :   1.17178011E-01
cartesian_stress_tensor: # hartree/bohr^3
- [ -4.10757630E-05,   4.47739519E-05,   3.52099100E-06, ]
- [  4.47739519E-05,   5.90489049E-05,  -1.12934576E-05, ]
- [  3.52099100E-06,  -1.12934576E-05,   9.40251385E-05, ]
pressure_GPa:  -1.0984E+00
xred      :
- [  8.3751E-01,   8.8627E-01,   8.7363E-01, La]
- [  3.7316E-01,   6.7807E-01,   1.3458E-01, La]
- [  1.1283E-01,   3.2660E-01,   6.2876E-01, La]
- [  6.5789E-01,   1.0683E-01,   3.7418E-01, La]
- [  2.0001E-01,   2.0899E-01,   1.6770E-01, Mo]
- [  6.2093E-01,   3.0905E-01,   8.4102E-01, Mo]
- [  8.8010E-01,   6.8883E-01,   3.3968E-01, Mo]
- [  2.9810E-01,   7.9471E-01,   6.6877E-01, Mo]
- [  2.8713E-01,   3.9488E-01,   3.1843E-01,  O]
- [  8.0172E-01,   1.8128E-01,   6.7942E-01,  O]
- [  6.9313E-01,   8.0545E-01,   1.8202E-01,  O]
- [  2.0782E-01,   6.0354E-01,   8.1180E-01,  O]
- [  1.0098E+00,   1.4036E-01,   3.2603E-01,  O]
- [  4.5433E-01,   2.5846E-01,   6.4381E-01,  O]
- [  3.9462E-02,   7.4304E-01,   1.3538E-01,  O]
- [  4.8937E-01,   8.4876E-01,   8.3145E-01,  O]
- [  3.5805E-01,   1.0268E+00,   1.7846E-01,  O]
- [  1.4135E-01,  -2.3495E-02,   6.9240E-01,  O]
- [  7.4323E-01,   5.2605E-01,   8.3347E-01,  O]
- [  7.7544E-01,   4.6399E-01,   3.4734E-01,  O]
- [  7.5935E-02,   2.1924E-01,   9.5418E-01,  O]
- [  7.9801E-01,   8.4180E-01,   5.2245E-01,  O]
- [  4.2705E-01,   8.0697E-01,   4.5551E-01,  O]
- [  7.0288E-01,   1.5074E-01,   2.1703E-02,  O]
- [  4.2122E-01,   3.6562E-01,   9.9931E-01,  O]
- [  1.0935E+00,   6.4715E-01,   4.8851E-01,  O]
cartesian_forces: # hartree/bohr
- [ -4.19343601E-05,   1.22669677E-04,   9.23561545E-05, ]
- [ -6.48355914E-05,  -1.23734211E-05,  -1.97458840E-05, ]
- [  1.81247693E-04,  -3.14242670E-05,  -5.81862527E-06, ]
- [ -5.15696891E-06,   3.64802093E-05,   2.11628573E-04, ]
- [  8.12027322E-05,   1.00613619E-04,   2.24558980E-05, ]
- [  1.16376310E-06,  -1.23751942E-04,  -1.79960946E-05, ]
- [ -3.44358929E-05,   8.64242269E-05,   2.85069741E-06, ]
- [ -5.66557915E-05,  -1.56147609E-04,  -4.34362653E-05, ]
- [  5.04978260E-05,   5.32444098E-05,  -7.49213695E-05, ]
- [ -5.60423203E-05,  -1.60904708E-05,   1.38394379E-05, ]
- [  9.43433125E-05,   7.26502418E-05,  -3.88971326E-05, ]
- [ -3.38508660E-06,  -7.13197349E-05,   9.13394975E-05, ]
- [ -3.45514044E-05,  -6.67319684E-05,  -2.64331887E-05, ]
- [ -3.86211066E-07,  -3.86095138E-05,   1.13138382E-04, ]
- [  1.28213058E-04,   3.90911149E-05,   6.46826031E-05, ]
- [  1.70087079E-05,   3.09403844E-05,  -5.94122215E-05, ]
- [ -2.13760837E-05,   8.89254870E-05,  -1.26432226E-04, ]
- [  1.99001960E-06,  -1.10463305E-04,  -1.21454900E-04, ]
- [ -1.52148340E-04,  -1.69264756E-04,   8.06363368E-05, ]
- [ -6.11775259E-05,   9.44041118E-05,  -1.40628825E-04, ]
- [  9.82539881E-05,   8.36880839E-05,   1.08854156E-04, ]
- [  2.79534698E-05,   7.78425704E-05,   3.43019564E-06, ]
- [  5.02112455E-05,  -1.31671113E-04,   2.39348577E-06, ]
- [ -1.26181649E-04,   1.57009390E-04,  -9.28090747E-05, ]
- [  6.93823582E-05,  -1.32851080E-04,  -1.45568339E-04, ]
- [ -1.43200948E-04,   1.67156539E-05,   1.05948730E-04, ]
force_length_stats: {min:   5.99264129E-05, max:   2.41457851E-04, mean:   1.42888411E-04, }
...

 Integrated electronic density in atomic spheres:
 ------------------------------------------------
 Atom  Sphere_radius  Integrated_density
    1        2.51647          7.84712350
    2        2.51647          7.86946293
    3        2.51647          7.85998322
    4        2.51647          7.83407604
    5        2.20000         11.49768343
    6        2.20000         11.35114269
    7        2.20000         11.37899444
    8        2.20000         11.48819406
    9        1.41465          4.55998563
   10        1.41465          4.55876333
   11        1.41465          4.55570194
   12        1.41465          4.54543707
   13        1.41465          4.54128725
   14        1.41465          4.52567045
   15        1.41465          4.54335740
   16        1.41465          4.54352563
   17        1.41465          4.56491710
   18        1.41465          4.55598259
   19        1.41465          4.51607210
   20        1.41465          4.52563144
   21        1.41465          4.54939521
   22        1.41465          4.54768894
   23        1.41465          4.55811930
   24        1.41465          4.53590815
   25        1.41465          4.56606592
   26        1.41465          4.56208503
 
 PAW TEST:
 ==== Compensation charge inside spheres ============
 The following values must be close to each other ...
 Compensation charge over spherical meshes =     21.029497877056464
 Compensation charge over fft grid         =     21.029750243968692
 
 ==== Results concerning PAW augmentation regions ====
 
 Total pseudopotential strength Dij (hartree):
 Atom #  1
   0.47686  -0.11803  -0.00075  -0.00024   0.00109  -0.00005  -0.00001   0.00008  -0.00001   0.00003  -0.00004   0.00001 ...
  -0.11803   0.02327   0.00014   0.00005  -0.00021  -0.00005  -0.00001   0.00007   0.00000   0.00000  -0.00000   0.00000 ...
  -0.00075   0.00014  -0.17992   0.00001  -0.00003   0.04341   0.00013   0.00006   0.00030  -0.00007   0.00013   0.00001 ...
  -0.00024   0.00005   0.00001  -0.17992  -0.00002   0.00013   0.04318   0.00014   0.00001  -0.00021  -0.00007   0.00031 ...
   0.00109  -0.00021  -0.00003  -0.00002  -0.17988   0.00006   0.00014   0.04351  -0.00021   0.00001  -0.00017  -0.00008 ...
  -0.00005  -0.00005   0.04341   0.00013   0.00006   0.31990   0.00004   0.00000   0.00012  -0.00002   0.00005   0.00003 ...
  -0.00001  -0.00001   0.00013   0.04318   0.00014   0.00004   0.31985   0.00003   0.00003  -0.00006  -0.00000   0.00012 ...
   0.00008   0.00007   0.00006   0.00014   0.04351   0.00000   0.00003   0.31995  -0.00007   0.00003  -0.00007  -0.00003 ...
  -0.00001   0.00000   0.00030   0.00001  -0.00021   0.00012   0.00003  -0.00007  -0.05751   0.00001   0.00000   0.00001 ...
   0.00003   0.00000  -0.00007  -0.00021   0.00001  -0.00002  -0.00006   0.00003   0.00001  -0.05756   0.00001   0.00000 ...
  -0.00004  -0.00000   0.00013  -0.00007  -0.00017   0.00005  -0.00000  -0.00007   0.00000   0.00001  -0.05756   0.00001 ...
   0.00001   0.00000   0.00001   0.00031  -0.00008   0.00003   0.00012  -0.00003   0.00001   0.00000   0.00001  -0.05754 ...
   ...  only 12  components have been written...
 Atom # 26
   0.61755  -1.77152  -0.00025   0.00022   0.00047   0.00182  -0.00159  -0.00334
  -1.77152   5.14032   0.00064  -0.00057  -0.00119  -0.00489   0.00418   0.00881
  -0.00025   0.00064  -0.31130   0.00010   0.00005   0.97443  -0.00055  -0.00024
   0.00022  -0.00057   0.00010  -0.31161  -0.00073  -0.00055   0.97603   0.00378
   0.00047  -0.00119   0.00005  -0.00073  -0.31194  -0.00024   0.00378   0.97770
   0.00182  -0.00489   0.97443  -0.00055  -0.00024  -0.30720   0.00279   0.00118
  -0.00159   0.00418  -0.00055   0.97603   0.00378   0.00279  -0.31523  -0.01889
  -0.00334   0.00881  -0.00024   0.00378   0.97770   0.00118  -0.01889  -0.32346
 
 
 Augmentation waves occupancies Rhoij:
 Atom #  1
   2.02465  -0.08088   0.00592   0.00108  -0.01084  -0.00334  -0.00084   0.00566   0.00559   0.00620  -0.00820   0.00989 ...
  -0.08088   0.24271  -0.02770  -0.00683   0.04696   0.00837   0.00299  -0.01309  -0.01370  -0.00788   0.01239  -0.01822 ...
   0.00592  -0.02770   2.04117  -0.00695   0.00025  -0.01935   0.00368   0.00045   0.03999  -0.01181   0.02183   0.02135 ...
   0.00108  -0.00683  -0.00695   2.05483  -0.00686   0.00369  -0.02716   0.00403   0.02309  -0.01042  -0.00041   0.02934 ...
  -0.01084   0.04696   0.00025  -0.00686   2.04602   0.00045   0.00402  -0.02155  -0.01510   0.02206  -0.01872  -0.00655 ...
  -0.00334   0.00837  -0.01935   0.00369   0.00045   0.01287  -0.00118  -0.00053  -0.01056   0.00367  -0.00630  -0.00609 ...
  -0.00084   0.00299   0.00368  -0.02716   0.00402  -0.00118   0.01599  -0.00169  -0.00675   0.00205   0.00035  -0.00700 ...
   0.00566  -0.01309   0.00045   0.00403  -0.02155  -0.00053  -0.00169   0.01458   0.00308  -0.00642   0.00426   0.00202 ...
   0.00559  -0.01370   0.03999   0.02309  -0.01510  -0.01056  -0.00675   0.00308   0.08336  -0.01339   0.00529  -0.00758 ...
   0.00620  -0.00788  -0.01181  -0.01042   0.02206   0.00367   0.00205  -0.00642  -0.01339   0.10743  -0.01166  -0.01022 ...
  -0.00820   0.01239   0.02183  -0.00041  -0.01872  -0.00630   0.00035   0.00426   0.00529  -0.01166   0.10801  -0.01019 ...
   0.00989  -0.01822   0.02135   0.02934  -0.00655  -0.00609  -0.00700   0.00202  -0.00758  -0.01022  -0.01019   0.10761 ...
   ...  only 12  components have been written...
 Atom # 26
   1.99519   0.03100  -0.00377  -0.00555  -0.01251   0.00103  -0.00135  -0.00307
   0.03100   0.00122   0.00359  -0.00301  -0.00665   0.00012  -0.00015  -0.00028
  -0.00377   0.00359   1.74122   0.00475   0.00370   0.02944  -0.00045   0.00057
  -0.00555  -0.00301   0.00475   1.74196   0.03221  -0.00044   0.03081   0.00676
  -0.01251  -0.00665   0.00370   0.03221   1.76925   0.00058   0.00675   0.03403
   0.00103   0.00012   0.02944  -0.00044   0.00058   0.00065  -0.00003  -0.00000
  -0.00135  -0.00015  -0.00045   0.03081   0.00675  -0.00003   0.00077   0.00033
  -0.00307  -0.00028   0.00057   0.00676   0.03403  -0.00000   0.00033   0.00092
 
 
 
---OUTPUT-----------------------------------------------------------------------
 
 Cartesian coordinates (xcart) [bohr]
  1.08383446217520E+01  1.19187269946986E+01  1.18580596032881E+01
  4.74367534030513E+00  9.19945511313140E+00  1.82675308202197E+00
  1.40088038435426E+00  4.44989446851796E+00  8.53271673624563E+00
  8.68774968274552E+00  1.27046614973493E+00  5.08080863324581E+00
  2.58896413190521E+00  2.80990607887385E+00  2.27636348702592E+00
  8.14009928873018E+00  4.05724010512515E+00  1.14156679650212E+01
  1.14590402199898E+01  9.19603800082736E+00  4.61250812236143E+00
  3.71678520763042E+00  1.08224228373108E+01  9.07555894888469E+00
  3.68883798926391E+00  5.33620785518000E+00  4.32196553242732E+00
  1.05729723085718E+01  2.24940068931165E+00  9.22374620202840E+00
  8.94596053094455E+00  1.08533060743421E+01  2.47179246975429E+00
  2.57805844133920E+00  8.22398408141105E+00  1.10166054282882E+01
  1.33412568172803E+01  1.62624512561832E+00  4.42895033937056E+00
  5.94657622986642E+00  3.41250833358494E+00  8.73872075029677E+00
  3.02465805810451E-01  1.01908888977721E+01  1.83591800325467E+00
  6.23601445846059E+00  1.15073219371112E+01  1.12840781680285E+01
  4.43998220374110E+00  1.39924724008201E+01  2.42150966082987E+00
  1.88327292528705E+00 -3.66037160801764E-01  9.39720533168927E+00
  9.69603446242693E+00  7.00052800968548E+00  1.13133665060002E+01
  1.01391459444648E+01  6.13985099416912E+00  4.71641109253938E+00
  9.45421960367444E-01  2.98603114132672E+00  1.29489329119728E+01
  1.03265544190832E+01  1.13205759183427E+01  7.09222333277596E+00
  5.42098549307460E+00  1.09528510735195E+01  6.18206284334098E+00
  9.26933119015409E+00  1.86071626661717E+00  2.97499130665364E-01
  5.47751743801832E+00  4.89316613614766E+00  1.35627414606932E+01
  1.43001663766534E+01  8.55993816796384E+00  6.63333250377120E+00
 Reduced coordinates (xred)
  8.37505988492477E-01  8.86267622246428E-01  8.73628732067174E-01
  3.73157754909754E-01  6.78066105408535E-01  1.34578725826059E-01
  1.12830146281974E-01  3.26603515061488E-01  6.28760498182429E-01
  6.57885908672774E-01  1.06832050977884E-01  3.74180911733836E-01
  2.00009218133033E-01  2.08992570812247E-01  1.67700629619101E-01
  6.20934592175325E-01  3.09048184244902E-01  8.41020729522846E-01
  8.80100465699567E-01  6.88831238013789E-01  3.39681337142800E-01
  2.98095790673713E-01  7.94710511346747E-01  6.68765347177133E-01
  2.87131936021568E-01  3.94882822692538E-01  3.18432367148391E-01
  8.01718422688352E-01  1.81284367841881E-01  6.79423881351169E-01
  6.93125440418618E-01  8.05449732232285E-01  1.82018848210137E-01
  2.07819603064705E-01  6.03540458201711E-01  8.11798820873511E-01
  1.00983103330927E+00  1.40361301245066E-01  3.26031787574614E-01
  4.54334202963295E-01  2.58456673438761E-01  6.43813696235489E-01
  3.94618797130092E-02  7.43037870360255E-01  1.35377590555049E-01
  4.89365158617908E-01  8.48756859011013E-01  8.31447303760595E-01
  3.58054633040860E-01  1.02680222409209E+00  1.78460264252215E-01
  1.41350502126425E-01 -2.34952676090076E-02  6.92401838758946E-01
  7.43227731643853E-01  5.26045405234626E-01  8.33471980021662E-01
  7.75444005534681E-01  4.63994183081981E-01  3.47340931533166E-01
  7.59345186517817E-02  2.19242992718017E-01  9.54176116121737E-01
  7.98008469671392E-01  8.41800522023911E-01  5.22454764246968E-01
  4.27052745152761E-01  8.06972918089706E-01  4.55509439939113E-01
  7.02884172706182E-01  1.50742369774976E-01  2.17032730853033E-02
  4.21218519721822E-01  3.65620562432560E-01  9.99309014304154E-01
  1.09351715991444E+00  6.47152207026599E-01  4.88511170757499E-01
 Cartesian forces (fcart) [Ha/bohr]; max,rms= 2.11629E-04 8.73031E-05 (free atoms)
 -4.19343601201624E-05  1.22669677134926E-04  9.23561544809313E-05
 -6.48355913696830E-05 -1.23734211066664E-05 -1.97458839820335E-05
  1.81247693319215E-04 -3.14242669809026E-05 -5.81862527394597E-06
 -5.15696890612788E-06  3.64802093190598E-05  2.11628572583899E-04
  8.12027322465063E-05  1.00613618788679E-04  2.24558979755655E-05
  1.16376309754354E-06 -1.23751941707599E-04 -1.79960945651452E-05
 -3.44358928765372E-05  8.64242268604292E-05  2.85069741140159E-06
 -5.66557914847506E-05 -1.56147608522366E-04 -4.34362652613769E-05
  5.04978260131515E-05  5.32444097710971E-05 -7.49213695494917E-05
 -5.60423203071383E-05 -1.60904708486055E-05  1.38394379030256E-05
  9.43433125202958E-05  7.26502417935882E-05 -3.88971326253894E-05
 -3.38508659665314E-06 -7.13197349283508E-05  9.13394975117214E-05
 -3.45514043507069E-05 -6.67319684158479E-05 -2.64331886601095E-05
 -3.86211066218220E-07 -3.86095138021116E-05  1.13138382234890E-04
  1.28213057530860E-04  3.90911148537587E-05  6.46826030787847E-05
  1.70087078549111E-05  3.09403844214336E-05 -5.94122214884494E-05
 -2.13760837126730E-05  8.89254870114732E-05 -1.26432225794928E-04
  1.99001960422113E-06 -1.10463305048360E-04 -1.21454900410651E-04
 -1.52148340015489E-04 -1.69264755791039E-04  8.06363367649305E-05
 -6.11775258635148E-05  9.44041118124006E-05 -1.40628825472666E-04
  9.82539880732606E-05  8.36880838955584E-05  1.08854155818241E-04
  2.79534697989084E-05  7.78425703863021E-05  3.43019563517411E-06
  5.02112454505239E-05 -1.31671113256952E-04  2.39348577330999E-06
 -1.26181648817256E-04  1.57009390413769E-04 -9.28090747032134E-05
  6.93823582132664E-05 -1.32851079950402E-04 -1.45568339039501E-04
 -1.43200948235752E-04  1.67156538967283E-05  1.05948729655027E-04
 Reduced forces (fred)
  5.91752041457859E-04 -1.69671319598004E-03 -1.25291900185979E-03
  8.55561622612438E-04  1.50573761478253E-04  2.68245697213138E-04
 -2.41107826066089E-03  4.85413323758609E-04  7.80609309656689E-05
  7.82081220735858E-05 -5.02040705901450E-04 -2.87189069296314E-03
 -1.04620429043361E-03 -1.35735362406291E-03 -3.04925754038822E-04
 -5.21585232349413E-05  1.69958931883146E-03  2.43974571906588E-04
  4.82019192035604E-04 -1.19695966937595E-03 -3.83570156342969E-05
  7.04501037298382E-04  2.12717143616490E-03  5.89424895059541E-04
 -6.52968531726131E-04 -7.16238488311512E-04  1.01661912624593E-03
  7.37778093960002E-04  2.04296026834306E-04 -1.87584827707247E-04
 -1.22836854203534E-03 -9.69589962595428E-04  5.27573062784773E-04
  2.32123708789281E-05  9.78486686236240E-04 -1.23968174265520E-03
  4.38116179086009E-04  9.05986284283025E-04  3.58751060283205E-04
 -6.89511261924580E-06  5.30267004618885E-04 -1.53546153750965E-03
 -1.68765026335445E-03 -4.98497824713827E-04 -8.78318304999370E-04
 -2.15904682618780E-04 -4.19908428095976E-04  8.06257983687702E-04
  3.10304905910484E-04 -1.22767326117835E-03  1.71607047562146E-03
 -5.86733759314620E-05  1.51716148589295E-03  1.64802398765498E-03
  1.96541631598271E-03  2.27911824550652E-03 -1.09393216870830E-03
  8.39419070896571E-04 -1.31477230728234E-03  1.90892633628821E-03
 -1.27759144104276E-03 -1.11970061930192E-03 -1.47753861568572E-03
 -3.47272830013632E-04 -1.06055786950744E-03 -4.65277420657394E-05
 -7.04549017426227E-04  1.82296350260057E-03 -3.29731997077854E-05
  1.71920925978186E-03 -2.19367312172893E-03  1.26039477075049E-03
 -9.58254212637460E-04  1.84457971682287E-03  1.97490785634247E-03
  1.90207087176048E-03 -2.71927714992507E-04 -1.43712015126908E-03
 Total energy (etotal) [Ha]= -6.94352200761424E+02
 
 Difference of energy with previous step (new-old):
           Absolute (Ha)=-8.49257E-07
           Relative     =-1.22309E-09
 
--- Iteration: (  3/150) Internal Cycle: (1/1)
--------------------------------------------------------------------------------
 
---SELF-CONSISTENT-FIELD CONVERGENCE--------------------------------------------

--- !BeginCycle
iteration_state: {dtset: 1, itime: 3, icycle: 1, }
solver: {iscf: 7, nstep: 100, nline: 4, wfoptalg: 114, }
tolerances: {tolvrs: 1.00E-20, }
...
 
     iter   Etot(hartree)      deltaE(h)  residm     vres2
 ETOT  1  -694.35219211725    -6.944E+02 1.751E-11 2.510E+02
 ETOT  2  -694.35219884239    -6.725E-06 5.768E-12 2.303E+01
 ETOT  3  -694.35219072545     8.117E-06 5.675E-09 5.627E-02
 ETOT  4  -694.35218747851     3.247E-06 1.482E-08 6.692E-02
 ETOT  5  -694.35220139598    -1.392E-05 7.360E-10 7.770E-03
 ETOT  6  -694.35220210494    -7.090E-07 2.862E-09 1.227E-03
 ETOT  7  -694.35220242889    -3.240E-07 1.610E-10 5.317E-04
 ETOT  8  -694.35220251595    -8.706E-08 1.980E-10 1.128E-04
 ETOT  9  -694.35220253015    -1.420E-08 2.517E-11 4.582E-05
 ETOT 10  -694.35220253933    -9.178E-09 3.997E-12 8.283E-06
 ETOT 11  -694.35220254028    -9.510E-10 1.348E-12 2.374E-06
 ETOT 12  -694.35220254088    -6.016E-10 3.205E-13 4.401E-07
 ETOT 13  -694.35220254097    -9.004E-11 1.153E-13 3.128E-08
 ETOT 14  -694.35220254097    -1.137E-13 1.854E-14 3.143E-08
 ETOT 15  -694.35220254098    -8.185E-12 4.801E-15 5.920E-09
 ETOT 16  -694.35220254098    -6.821E-13 2.099E-15 3.358E-09
 ETOT 17  -694.35220254098    -2.274E-13 5.447E-16 4.867E-10
 ETOT 18  -694.35220254098    -3.411E-13 2.390E-16 1.834E-10
 ETOT 19  -694.35220254098    -2.274E-13 2.594E-17 3.261E-11
 ETOT 20  -694.35220254098     3.411E-13 1.042E-17 1.328E-11
 ETOT 21  -694.35220254098     0.000E+00 3.746E-18 3.483E-12
 ETOT 22  -694.35220254098     2.274E-13 5.066E-19 1.003E-12
 ETOT 23  -694.35220254098    -4.547E-13 2.843E-19 6.792E-14
 ETOT 24  -694.35220254098     5.684E-13 1.524E-20 1.815E-14
 ETOT 25  -694.35220254098    -5.684E-13 9.006E-21 6.325E-15
 ETOT 26  -694.35220254098    -2.274E-13 2.970E-21 1.424E-15
 ETOT 27  -694.35220254098     6.821E-13 5.342E-22 5.277E-16
 ETOT 28  -694.35220254098    -5.684E-13 3.553E-22 1.288E-16
 ETOT 29  -694.35220254098     0.000E+00 1.180E-23 5.452E-17
 ETOT 30  -694.35220254098     4.547E-13 1.379E-23 7.857E-18
 ETOT 31  -694.35220254098    -2.274E-13 8.674E-25 5.247E-18
 ETOT 32  -694.35220254098     3.411E-13 3.506E-25 4.071E-19
 ETOT 33  -694.35220254098     0.000E+00 1.205E-25 3.649E-19
 ETOT 34  -694.35220254098    -4.547E-13 4.285E-26 3.969E-20
 ETOT 35  -694.35220254098     1.137E-13 9.184E-27 2.029E-20
 ETOT 36  -694.35220254098    -2.274E-13 3.177E-27 3.690E-21
 
 At SCF step   36       vres2   =  3.69E-21 < tolvrs=  1.00E-20 =>converged.
 
 Cartesian components of stress tensor (hartree/bohr^3)
  sigma(1 1)= -4.14806101E-05  sigma(3 2)= -1.12735459E-05
  sigma(2 2)=  5.82859370E-05  sigma(3 1)=  3.25367822E-06
  sigma(3 3)=  9.32263593E-05  sigma(2 1)=  4.50256700E-05
 

--- !ResultsGS
iteration_state: {dtset: 1, itime: 3, icycle: 1, }
comment   : Summary of ground state results
lattice_vectors:
- [ 13.2512329,  -0.2975368,   0.0046415, ]
- [ -0.2975368,  13.7313270,  -0.0019627, ]
- [  0.0046415,  -0.0019627,  13.5708813, ]
lattice_lengths: [  13.25457,   13.73455,   13.57088, ]
lattice_angles: [ 90.017,  89.960,  92.528, ] # degrees, (23, 13, 12)
lattice_volume:   2.4681153E+03
convergence: {deltae: -2.274E-13, res2:  3.690E-21, residm:  3.177E-27, diffor: null, }
etotal    :  -6.94352203E+02
entropy   :   0.00000000E+00
fermie    :   1.17174678E-01
cartesian_stress_tensor: # hartree/bohr^3
- [ -4.14806101E-05,   4.50256700E-05,   3.25367822E-06, ]
- [  4.50256700E-05,   5.82859370E-05,  -1.12735459E-05, ]
- [  3.25367822E-06,  -1.12735459E-05,   9.32263593E-05, ]
pressure_GPa:  -1.0791E+00
xred      :
- [  8.3749E-01,   8.8631E-01,   8.7366E-01, La]
- [  3.7313E-01,   6.7806E-01,   1.3457E-01, La]
- [  1.1290E-01,   3.2660E-01,   6.2876E-01, La]
- [  6.5788E-01,   1.0684E-01,   3.7426E-01, La]
- [  2.0004E-01,   2.0903E-01,   1.6771E-01, Mo]
- [  6.2093E-01,   3.0900E-01,   8.4102E-01, Mo]
- [  8.8009E-01,   6.8886E-01,   3.3968E-01, Mo]
- [  2.9807E-01,   7.9465E-01,   6.6875E-01, Mo]
- [  2.8715E-01,   3.9490E-01,   3.1840E-01,  O]
- [  8.0170E-01,   1.8128E-01,   6.7943E-01,  O]
- [  6.9316E-01,   8.0548E-01,   1.8200E-01,  O]
- [  2.0782E-01,   6.0352E-01,   8.1183E-01,  O]
- [  1.0098E+00,   1.4034E-01,   3.2602E-01,  O]
- [  4.5434E-01,   2.5844E-01,   6.4386E-01,  O]
- [  3.9509E-02,   7.4305E-01,   1.3540E-01,  O]
- [  4.8937E-01,   8.4877E-01,   8.3143E-01,  O]
- [  3.5805E-01,   1.0268E+00,   1.7841E-01,  O]
- [  1.4135E-01,  -2.3534E-02,   6.9236E-01,  O]
- [  7.4317E-01,   5.2598E-01,   8.3350E-01,  O]
- [  7.7542E-01,   4.6403E-01,   3.4729E-01,  O]
- [  7.5972E-02,   2.1927E-01,   9.5422E-01,  O]
- [  7.9802E-01,   8.4183E-01,   5.2246E-01,  O]
- [  4.2707E-01,   8.0693E-01,   4.5551E-01,  O]
- [  7.0284E-01,   1.5080E-01,   2.1666E-02,  O]
- [  4.2125E-01,   3.6557E-01,   9.9925E-01,  O]
- [  1.0935E+00,   6.4716E-01,   4.8855E-01,  O]
cartesian_forces: # hartree/bohr
- [ -3.28633167E-05,   8.54102858E-05,   7.26223534E-05, ]
- [  1.22530938E-05,   6.22554676E-06,  -6.25302421E-05, ]
- [  1.17342055E-04,  -7.91477519E-05,   2.31119819E-05, ]
- [  1.06265012E-05,   3.93494492E-05,   1.54211209E-04, ]
- [ -1.01971948E-04,  -9.37850792E-05,   2.38921185E-05, ]
- [ -2.07686309E-05,   4.75046101E-05,  -4.98877050E-05, ]
- [ -6.35126525E-05,   1.61351386E-05,  -8.37693722E-05, ]
- [  5.71363654E-05,  -6.62412739E-06,   3.74535169E-05, ]
- [  1.09012483E-04,   1.94090484E-04,   6.51241595E-05, ]
- [  8.45358896E-05,  -7.69791463E-05,  -6.71265448E-05, ]
- [  5.44319110E-05,   9.42176420E-05,  -3.54251823E-05, ]
- [ -6.70690279E-06,  -9.97841903E-05,   8.07848030E-05, ]
- [  6.50391797E-05,   1.16786202E-05,  -5.70101121E-05, ]
- [ -1.58838088E-04,  -1.07299441E-04,  -1.36307222E-04, ]
- [  9.10565784E-05,   3.74352000E-05,   8.24541965E-05, ]
- [ -7.70456303E-05,  -2.02855796E-05,  -1.16024766E-04, ]
- [  7.91911828E-05,  -7.24035790E-06,  -6.37204569E-05, ]
- [ -7.00797272E-06,  -9.18525047E-05,  -9.51446173E-05, ]
- [ -5.18901896E-06,   7.81108813E-05,   5.81929575E-05, ]
- [ -5.30771493E-05,   1.15493681E-04,  -1.20389710E-04, ]
- [ -9.54145762E-06,   8.93968375E-05,  -7.43665217E-05, ]
- [ -3.20666247E-06,   8.82893043E-05,   4.24718107E-05, ]
- [  2.22093631E-05,  -1.43866311E-04,  -2.27069779E-05, ]
- [  3.62916696E-05,  -1.18889514E-04,   1.68445292E-04, ]
- [ -1.52660960E-04,  -2.02876332E-05,   4.25730532E-05, ]
- [ -4.67358817E-05,  -3.72960439E-05,   1.33071978E-04, ]
force_length_stats: {min:   6.40228625E-05, max:   2.35207073E-04, mean:   1.32863777E-04, }
...

 Integrated electronic density in atomic spheres:
 ------------------------------------------------
 Atom  Sphere_radius  Integrated_density
    1        2.51647          7.84597165
    2        2.51647          7.86927241
    3        2.51647          7.85910059
    4        2.51647          7.83475787
    5        2.20000         11.49862064
    6        2.20000         11.35357702
    7        2.20000         11.37924183
    8        2.20000         11.48767754
    9        1.41465          4.56107116
   10        1.41465          4.55886344
   11        1.41465          4.55745064
   12        1.41465          4.54638806
   13        1.41465          4.54118337
   14        1.41465          4.52584591
   15        1.41465          4.54163169
   16        1.41465          4.54339759
   17        1.41465          4.56485951
   18        1.41465          4.55498876
   19        1.41465          4.51594392
   20        1.41465          4.52725293
   21        1.41465          4.54958949
   22        1.41465          4.54861576
   23        1.41465          4.55731765
   24        1.41465          4.53667957
   25        1.41465          4.56696480
   26        1.41465          4.55951937
 
 PAW TEST:
 ==== Compensation charge inside spheres ============
 The following values must be close to each other ...
 Compensation charge over spherical meshes =     21.029763372503481
 Compensation charge over fft grid         =     21.030014420268571
 
 ==== Results concerning PAW augmentation regions ====
 
 Total pseudopotential strength Dij (hartree):
 Atom #  1
   0.47688  -0.11803  -0.00075  -0.00024   0.00109  -0.00005  -0.00001   0.00008  -0.00001   0.00003  -0.00004   0.00001 ...
  -0.11803   0.02327   0.00014   0.00005  -0.00021  -0.00005  -0.00001   0.00007   0.00000   0.00000  -0.00000   0.00000 ...
  -0.00075   0.00014  -0.17992   0.00001  -0.00003   0.04342   0.00013   0.00006   0.00030  -0.00007   0.00013   0.00001 ...
  -0.00024   0.00005   0.00001  -0.17991  -0.00002   0.00013   0.04318   0.00014   0.00001  -0.00021  -0.00007   0.00031 ...
   0.00109  -0.00021  -0.00003  -0.00002  -0.17987   0.00006   0.00014   0.04352  -0.00021   0.00001  -0.00017  -0.00008 ...
  -0.00005  -0.00005   0.04342   0.00013   0.00006   0.31990   0.00004   0.00000   0.00012  -0.00002   0.00005   0.00003 ...
  -0.00001  -0.00001   0.00013   0.04318   0.00014   0.00004   0.31985   0.00003   0.00003  -0.00006  -0.00000   0.00012 ...
   0.00008   0.00007   0.00006   0.00014   0.04352   0.00000   0.00003   0.31995  -0.00007   0.00003  -0.00007  -0.00003 ...
  -0.00001   0.00000   0.00030   0.00001  -0.00021   0.00012   0.00003  -0.00007  -0.05751   0.00001   0.00000   0.00001 ...
   0.00003   0.00000  -0.00007  -0.00021   0.00001  -0.00002  -0.00006   0.00003   0.00001  -0.05755   0.00001   0.00000 ...
  -0.00004  -0.00000   0.00013  -0.00007  -0.00017   0.00005  -0.00000  -0.00007   0.00000   0.00001  -0.05756   0.00001 ...
   0.00001   0.00000   0.00001   0.00031  -0.00008   0.00003   0.00012  -0.00003   0.00001   0.00000   0.00001  -0.05753 ...
   ...  only 12  components have been written...
 Atom # 26
   0.61755  -1.77153  -0.00025   0.00022   0.00047   0.00182  -0.00159  -0.00333
  -1.77153   5.14035   0.00064  -0.00057  -0.00119  -0.00489   0.00418   0.00879
  -0.00025   0.00064  -0.31131   0.00010   0.00005   0.97447  -0.00055  -0.00024
   0.00022  -0.00057   0.00010  -0.31161  -0.00073  -0.00055   0.97606   0.00378
   0.00047  -0.00119   0.00005  -0.00073  -0.31194  -0.00024   0.00378   0.97774
   0.00182  -0.00489   0.97447  -0.00055  -0.00024  -0.30735   0.00279   0.00118
  -0.00159   0.00418  -0.00055   0.97606   0.00378   0.00279  -0.31539  -0.01890
  -0.00333   0.00879  -0.00024   0.00378   0.97774   0.00118  -0.01890  -0.32364
 
 
 Augmentation waves occupancies Rhoij:
 Atom #  1
   2.02465  -0.08088   0.00592   0.00109  -0.01086  -0.00335  -0.00084   0.00567   0.00560   0.00622  -0.00820   0.00990 ...
  -0.08088   0.24270  -0.02773  -0.00685   0.04702   0.00838   0.00300  -0.01311  -0.01371  -0.00791   0.01239  -0.01824 ...
   0.00592  -0.02773   2.04115  -0.00695   0.00024  -0.01933   0.00369   0.00045   0.04001  -0.01181   0.02185   0.02132 ...
   0.00109  -0.00685  -0.00695   2.05483  -0.00687   0.00369  -0.02717   0.00403   0.02306  -0.01042  -0.00045   0.02940 ...
  -0.01086   0.04702   0.00024  -0.00687   2.04602   0.00045   0.00402  -0.02156  -0.01508   0.02203  -0.01873  -0.00655 ...
  -0.00335   0.00838  -0.01933   0.00369   0.00045   0.01286  -0.00118  -0.00053  -0.01056   0.00366  -0.00631  -0.00608 ...
  -0.00084   0.00300   0.00369  -0.02717   0.00402  -0.00118   0.01599  -0.00169  -0.00674   0.00205   0.00037  -0.00702 ...
   0.00567  -0.01311   0.00045   0.00403  -0.02156  -0.00053  -0.00169   0.01458   0.00307  -0.00641   0.00426   0.00202 ...
   0.00560  -0.01371   0.04001   0.02306  -0.01508  -0.01056  -0.00674   0.00307   0.08336  -0.01340   0.00531  -0.00758 ...
   0.00622  -0.00791  -0.01181  -0.01042   0.02203   0.00366   0.00205  -0.00641  -0.01340   0.10744  -0.01168  -0.01021 ...
  -0.00820   0.01239   0.02185  -0.00045  -0.01873  -0.00631   0.00037   0.00426   0.00531  -0.01168   0.10801  -0.01023 ...
   0.00990  -0.01824   0.02132   0.02940  -0.00655  -0.00608  -0.00702   0.00202  -0.00758  -0.01021  -0.01023   0.10762 ...
   ...  only 12  components have been written...
 Atom # 26
   1.99519   0.03101  -0.00374  -0.00556  -0.01255   0.00103  -0.00135  -0.00306
   0.03101   0.00122   0.00359  -0.00301  -0.00664   0.00012  -0.00015  -0.00028
  -0.00374   0.00359   1.74129   0.00478   0.00370   0.02944  -0.00045   0.00057
  -0.00556  -0.00301   0.00478   1.74205   0.03223  -0.00044   0.03082   0.00676
  -0.01255  -0.00664   0.00370   0.03223   1.76930   0.00058   0.00675   0.03403
   0.00103   0.00012   0.02944  -0.00044   0.00058   0.00065  -0.00003  -0.00000
  -0.00135  -0.00015  -0.00045   0.03082   0.00675  -0.00003   0.00077   0.00033
  -0.00306  -0.00028   0.00057   0.00676   0.03403  -0.00000   0.00033   0.00092
 
 
 
---OUTPUT-----------------------------------------------------------------------
 
 Cartesian coordinates (xcart) [bohr]
  1.08381430301395E+01  1.19193256615928E+01  1.18585068908524E+01
  4.74334527755485E+00  9.19938829323679E+00  1.82666866963426E+00
  1.40177069723131E+00  4.44975819326978E+00  8.53268101304084E+00
  8.68771800317074E+00  1.27063921123429E+00  5.08183850638357E+00
  2.58941835253131E+00  2.81045580205907E+00  2.27647821505890E+00
  8.14009974310354E+00  4.05659850863456E+00  1.14156006180668E+01
  1.14588961037787E+01  9.19648713436791E+00  4.61255308980590E+00
  3.71647846003980E+00  1.08216197131276E+01  9.07531726570903E+00
  3.68906048719942E+00  5.33641675544077E+00  4.32156433602726E+00
  1.05726693784279E+01  2.24933939043497E+00  9.22383326514153E+00
  8.94642300346721E+00  1.08536518851480E+01  2.47160368221228E+00
  2.57804633305436E+00  8.22365226350679E+00  1.10170458085578E+01
  1.33410610000290E+01  1.62590416847480E+00  4.42883639911119E+00
  5.94661394717131E+00  3.41233661980572E+00  8.73932121532684E+00
  3.03089886585486E-01  1.01910780501873E+01  1.83622516381625E+00
  6.23612770761902E+00  1.15074856559305E+01  1.12838134982788E+01
  4.43985569763052E+00  1.39929214867102E+01  2.42088719123938E+00
  1.88327952723119E+00 -3.66566015782200E-01  9.39661631747961E+00
  9.69526989160210E+00  6.99966186705756E+00  1.13137592900089E+01
  1.01388431066871E+01  6.14028830632008E+00  4.71572808095409E+00
  9.45914538978267E-01  2.98643030819462E+00  1.29494939929414E+01
  1.03266962829604E+01  1.13209460414368E+01  7.09222769859115E+00
  5.42123152194669E+00  1.09522198692621E+01  6.18208351174178E+00
  9.26868679067873E+00  1.86153741892999E+00  2.96989090567901E-01
  5.47790788868374E+00  4.89249976388128E+00  1.35619922315604E+01
  1.42994472147185E+01  8.56002933787979E+00  6.63383320371347E+00
 Reduced coordinates (xred)
  8.37491736011976E-01  8.86310916748740E-01  8.73661702563591E-01
  3.73132727546401E-01  6.78060695978752E-01  1.34572513492593E-01
  1.12897144135928E-01  3.26595042017688E-01  6.28757841700054E-01
  6.57883773597112E-01  1.06844618968415E-01  3.74256802731299E-01
  2.00044408844550E-01  2.09033368784494E-01  1.67709077469086E-01
  6.20933578554830E-01  3.09001436553796E-01  8.41015760501281E-01
  8.80090318351365E-01  6.88863727288190E-01  3.39684658836484E-01
  2.98071323070896E-01  7.94651490164748E-01  6.68747538057333E-01
  2.87149086956706E-01  3.94898403507454E-01  3.18402800503579E-01
  8.01695448520204E-01  1.81279406782288E-01  6.79430303926790E-01
  6.93160928326015E-01  8.05475683288893E-01  1.82004928603741E-01
  2.07818134751384E-01  6.03516265995310E-01  8.11831268258039E-01
  1.00981569393959E+00  1.40336137060550E-01  3.26023393244936E-01
  4.54336754386472E-01  2.58444229790804E-01  6.43857940139254E-01
  3.95093002907172E-02  7.43052676371223E-01  1.35400210273844E-01
  4.89373983705431E-01  8.48768970464407E-01  8.31427799725799E-01
  3.58045832279616E-01  1.02683473204486E+00  1.78414403933628E-01
  1.41350150448550E-01 -2.35337959184374E-02  6.92358430509621E-01
  7.43168578405423E-01  5.25981049760079E-01  8.33500934092607E-01
  7.75421873769583E-01  4.64025544098938E-01  3.47290614439178E-01
  7.59723477154200E-02  2.19272888119740E-01  9.54217451982656E-01
  7.98019786003771E-01  8.41827721926091E-01  5.22455086014993E-01
  4.27070287505091E-01  8.06927330230801E-01  4.55510950342274E-01
  7.02836876083544E-01  1.50801140941863E-01  2.16657143439883E-02
  4.21246928288708E-01  3.65572640766747E-01  9.99253789073467E-01
  1.09346299851025E+00  6.47157678264555E-01  4.88548085240982E-01
 Cartesian forces (fcart) [Ha/bohr]; max,rms= 1.94090E-04 8.07507E-05 (free atoms)
 -3.28633167020098E-05  8.54102857971511E-05  7.26223533618620E-05
  1.22530937842136E-05  6.22554676249738E-06 -6.25302421415175E-05
  1.17342054523279E-04 -7.91477518882768E-05  2.31119818857381E-05
  1.06265011682238E-05  3.93494492311779E-05  1.54211209186731E-04
 -1.01971948417913E-04 -9.37850791863060E-05  2.38921184622769E-05
 -2.07686309417913E-05  4.75046101251922E-05 -4.98877050269848E-05
 -6.35126524683713E-05  1.61351386496377E-05 -8.37693721772247E-05
  5.71363654405592E-05 -6.62412738654441E-06  3.74535168972776E-05
  1.09012483285135E-04  1.94090483998974E-04  6.51241594523830E-05
  8.45358896392439E-05 -7.69791462800075E-05 -6.71265447586087E-05
  5.44319110084974E-05  9.42176420034140E-05 -3.54251823048664E-05
 -6.70690279071207E-06 -9.97841902640712E-05  8.07848029958643E-05
  6.50391797057640E-05  1.16786202014697E-05 -5.70101121068393E-05
 -1.58838088087443E-04 -1.07299441293578E-04 -1.36307221612177E-04
  9.10565784240898E-05  3.74352000185569E-05  8.24541965497387E-05
 -7.70456302779906E-05 -2.02855796341400E-05 -1.16024765969762E-04
  7.91911828175957E-05 -7.24035790343575E-06 -6.37204569219182E-05
 -7.00797271979244E-06 -9.18525047150789E-05 -9.51446173427532E-05
 -5.18901896136011E-06  7.81108813427966E-05  5.81929574701078E-05
 -5.30771492839687E-05  1.15493681060854E-04 -1.20389709684309E-04
 -9.54145762422788E-06  8.93968375448255E-05 -7.43665217021554E-05
 -3.20666246933711E-06  8.82893043090118E-05  4.24718106958180E-05
  2.22093631121415E-05 -1.43866310895794E-04 -2.27069778869376E-05
  3.62916695903630E-05 -1.18889514494317E-04  1.68445291899607E-04
 -1.52660960101217E-04 -2.02876331750716E-05  4.25730532193802E-05
 -4.67358816529717E-05 -3.72960439289373E-05  1.33071977559270E-04
 Reduced forces (fred)
  4.60555087518704E-04 -1.18243207243224E-03 -9.85229162861652E-04
 -1.60226034447012E-04 -8.19620005856302E-05  8.48545837008512E-04
 -1.57858353399052E-03  1.12176260333370E-03 -3.14349951354543E-04
 -1.29822107063021E-04 -5.36855707687493E-04 -2.09275410004261E-03
  1.32323862704554E-03  1.25750007540277E-03 -3.23947870349148E-04
  2.89575889604910E-04 -6.58578682253669E-04  6.77209756820482E-04
  8.46810563176009E-04 -2.40618631014473E-04  1.13715066669430E-03
 -7.59272047009822E-04  1.08031740806462E-04 -5.08555431362974E-04
 -1.38710301596442E-03 -2.63255685686127E-03 -8.83917275772282E-04
 -1.14279731937052E-03  1.08204661744598E-03  9.10422905403475E-04
 -6.93092286159724E-04 -1.27760728350594E-03  4.80683217383967E-04
  5.88102977305812E-05  1.36833235177777E-03 -1.09648568580237E-03
 -8.58109883300874E-04 -1.41123297621398E-04  7.73398502824680E-04
  2.07350763509183E-03  1.42583600690477E-03  1.85033577192166E-03
 -1.19585628875292E-03 -4.86780456072438E-04 -1.11932527722488E-03
  1.01545241375955E-03  2.55396294228133E-04  1.57487611613238E-03
 -1.05123931816137E-03  1.22856948370935E-04  8.64360976253038E-04
  6.59763939814391E-05  1.25898490648036E-03  1.29104855223768E-03
  9.17316564339358E-05 -1.07399576172503E-03 -7.89552322047650E-04
  7.38260077120176E-04 -1.60191019517382E-03  1.63426749376644E-03
  1.53380099679444E-04 -1.23052210294794E-03  1.00943898226649E-03
  6.85644143520825E-05 -1.21320004775380E-03 -5.76191729829546E-04
 -3.37001569376307E-04  1.98203889379113E-03  3.07768247850368E-04
 -5.17065213219505E-04  1.64363951561781E-03 -2.28635284861340E-03
  2.01671201193506E-03  2.33237430005724E-04 -5.77085089566602E-04
  6.07593449386762E-04  4.98479711469616E-04 -1.80576028173580E-03
 Total energy (etotal) [Ha]= -6.94352202540979E+02
 
 Difference of energy with previous step (new-old):
           Absolute (Ha)=-1.77956E-06
           Relative     =-2.56290E-09
 
--- Iteration: (  4/150) Internal Cycle: (1/1)
--------------------------------------------------------------------------------
 
---SELF-CONSISTENT-FIELD CONVERGENCE--------------------------------------------

--- !BeginCycle
iteration_state: {dtset: 1, itime: 4, icycle: 1, }
solver: {iscf: 7, nstep: 100, nline: 4, wfoptalg: 114, }
tolerances: {tolvrs: 1.00E-20, }
...
 
     iter   Etot(hartree)      deltaE(h)  residm     vres2
 ETOT  1  -694.35220313648    -6.944E+02 3.219E-12 6.476E-04
 ETOT  2  -694.35220315789    -2.141E-08 1.432E-12 1.614E-04
 ETOT  3  -694.35220316040    -2.512E-09 1.911E-10 1.134E-04
 ETOT  4  -694.35220317835    -1.795E-08 4.540E-11 1.604E-05
 ETOT  5  -694.35220318276    -4.409E-09 1.921E-12 3.860E-06
 ETOT  6  -694.35220318351    -7.581E-10 2.041E-12 1.990E-07
 ETOT  7  -694.35220318357    -5.696E-11 8.075E-14 1.015E-07
 ETOT  8  -694.35220318359    -2.296E-11 1.787E-14 1.519E-08
 ETOT  9  -694.35220318359    -5.684E-13 1.198E-14 6.676E-09
[...]
     3        0.001410088754     -0.000590559540      0.000360524216
     4        0.000214591570      0.000384994594      0.000262376383
     5        0.000183398147     -0.000009710309      0.000006122778
     6       -0.000070341946     -0.000038894738     -0.000078354403
     7       -0.000062403699      0.000323691747      0.000183833175
     8       -0.000010645714     -0.000590548392     -0.000134818102
     9        0.000234941375      0.000443165360     -0.000536308271
    10        0.000364961277      0.000816987628      0.000229912038
    11        0.000644365255      0.001303440201     -0.000280637406
    12        0.000934127218     -0.000255050276      0.000838742251
    13        0.000107327941      0.000689026277      0.000352261128
    14        0.000337921214     -0.000532838311     -0.000576766553
    15        0.000989153244      0.000170572328      0.001146705481
    16        0.000130225279      0.000904457394     -0.000680227201
    17        0.000133214671      0.000032786073      0.000633979587
    18       -0.000179265984     -0.000573426156     -0.001093064468
    19       -0.001376410116      0.000527160543      0.001101053295
    20       -0.001607477573      0.000955366087     -0.001702163388
    21       -0.000320709115     -0.001456493142      0.000070617558
    22       -0.000291556789      0.000760133602     -0.000013530325
    23       -0.000591792179     -0.002157596375     -0.000351171949
    24       -0.000145550518      0.000577655184      0.000122157854
    25       -0.001053930669     -0.001074306862     -0.000795807100
    26       -0.001672171959     -0.001157973606      0.001632180195
 
 Cartesian components of stress tensor (hartree/bohr^3)
  sigma(1 1)= -4.14525719E-05  sigma(3 2)= -9.08824658E-06
  sigma(2 2)=  5.81046202E-05  sigma(3 1)=  3.18063129E-06
  sigma(3 3)=  9.29536988E-05  sigma(2 1)=  4.55065244E-05
 
-Cartesian components of stress tensor (GPa)         [Pressure= -1.0749E+00 GPa]
- sigma(1 1)= -1.21957657E+00  sigma(3 2)= -2.67385401E-01
- sigma(2 2)=  1.70949666E+00  sigma(3 1)=  9.35773876E-02
- sigma(3 3)=  2.73479178E+00  sigma(2 1)=  1.33884794E+00
 
== END DATASET(S) ==============================================================
================================================================================
  
 -outvars: echo values of variables after computation  --------
-          iomode           1
            acell      1.0000000000E+00  1.0000000000E+00  1.0000000000E+00 Bohr
              amu      1.38905500E+02  9.59400000E+01  1.59994000E+01
        autoparal           1
           bandpp          26
     densfor_pred           6
           diemac      4.00000000E+00
          dilatmx      1.04000000E+00
             ecut      3.00000000E+01 Hartree
           ecutsm      5.00000000E-01 Hartree
           etotal1    -6.9435221679E+02
            fcart1    -4.5575360800E-11  6.6698592365E-11  3.2743324834E-11
                      -4.3298239241E-11 -4.7890622403E-12 -6.4059995698E-11
                      -5.5029449334E-11 -6.5707325858E-11  8.0143353302E-11
                      -2.3780253787E-11 -4.3889194254E-11  3.0737065957E-11
                       1.4536534730E-11  6.3326867028E-11 -1.7096227261E-11
                      -6.1060110215E-12 -9.2195225046E-12  1.0195136384E-11
                      -2.8798079637E-11 -1.4745151884E-12  2.7124697676E-11
                       1.4348765889E-11  9.0606923718E-12 -2.1540027843E-11
                       8.8460462439E-12  5.2625104073E-11  3.0126260449E-13
                       8.7921604574E-11 -2.4128384918E-11  2.4184806572E-12
                      -7.0675734809E-11 -6.8817093002E-11  2.9322122652E-11
                       8.9220902706E-11  7.8512247166E-11 -4.3278717562E-11
                       7.0842919692E-11  3.2613907912E-13  6.2224288646E-12
                       1.2034947095E-11 -1.7512531230E-11  1.9449079960E-11
                       6.9995343743E-11 -5.3677964946E-11  6.0189098588E-11
                       7.8455132541E-12  5.4517036590E-11  1.4857187695E-11
                      -2.6855507062E-11  3.4635391733E-11 -1.0327366632E-11
                       9.0534777551E-12 -4.2995470648E-11 -1.2760024618E-11
                      -4.7657403516E-11  4.3526695784E-12  1.4454424549E-11
                      -6.0266606850E-11  1.1383270127E-11  8.8039948231E-12
                      -1.8066732653E-11 -1.3899480965E-11 -4.6083341958E-11
                      -2.1676696157E-11 -1.7321334312E-11  2.6242659137E-11
                      -2.9963973787E-11  2.3301442627E-11  1.9632568468E-11
                      -1.0199221750E-11 -6.7804134191E-11 -2.0240905130E-11
                       2.7171920340E-11  3.6119302885E-11 -6.3914676539E-11
                       7.6131294445E-11 -3.6227414975E-12 -8.3535602911E-11
-          fftalg         401
           ionmov           2
             iscf           7
              ixc     -116133
           jdtset        1
              kpt      2.50000000E-01  2.50000000E-01  2.50000000E-01
                      -2.50000000E-01  2.50000000E-01  2.50000000E-01
                       2.50000000E-01 -2.50000000E-01  2.50000000E-01
                      -2.50000000E-01 -2.50000000E-01  2.50000000E-01
         kptrlatt        2    0    0      0    2    0      0    0    2
          kptrlen      2.65091473E+01
P           mkmem           1
            natom          26
            nband         104
           ndtset           1
            ngfft          72      75      75
          ngfftdg          72      75      75
             nkpt           4
-           npfft          15
-           npkpt           4
            nstep         100
             nsym           1
            ntime         150
           ntypat           3
              occ      2.000000  2.000000  2.000000  2.000000  2.000000  2.000000
                       2.000000  2.000000  2.000000  2.000000  2.000000  2.000000
                       2.000000  2.000000  2.000000  2.000000  2.000000  2.000000
                       2.000000  2.000000  2.000000  2.000000  2.000000  2.000000
                       2.000000  2.000000  2.000000  2.000000  2.000000  2.000000
                       2.000000  2.000000  2.000000  2.000000  2.000000  2.000000
                       2.000000  2.000000  2.000000  2.000000  2.000000  2.000000
                       2.000000  2.000000  2.000000  2.000000  2.000000  2.000000
                       2.000000  2.000000  2.000000  2.000000  2.000000  2.000000
                       2.000000  2.000000  2.000000  2.000000  2.000000  2.000000
                       2.000000  2.000000  2.000000  2.000000  2.000000  2.000000
                       2.000000  2.000000  2.000000  2.000000  2.000000  2.000000
                       2.000000  2.000000  2.000000  2.000000  2.000000  2.000000
                       2.000000  2.000000  2.000000  2.000000  2.000000  2.000000
                       2.000000  2.000000  2.000000  2.000000  2.000000  2.000000
                       2.000000  2.000000  2.000000  2.000000  2.000000  2.000000
                       2.000000  2.000000  2.000000  2.000000  2.000000  2.000000
                       2.000000  2.000000
        paral_kgb           1
        pawecutdg      3.00000000E+01 Hartree
         pawmixdg           1
         pawxcdev           0
           prteig           0
            rprim      1.3251232874E+01 -2.9753679958E-01  4.6415214355E-03
                      -2.9753679958E-01  1.3731326993E+01 -1.9627077596E-03
                       4.6415214355E-03 -1.9627077596E-03  1.3570881257E+01
           shiftk      5.00000000E-01  5.00000000E-01  5.00000000E-01
          spgroup           1
           strten1    -4.1452571901E-05  5.8104620199E-05  9.2953698829E-05
                      -9.0882465791E-06  3.1806312906E-06  4.5506524365E-05
           tolmxf      1.00000000E-10
           tolvrs      1.00000000E-20
            typat      1  1  1  1  2  2  2  2  3  3  3  3  3  3  3  3  3  3  3  3
                       3  3  3  3  3  3
           useylm           1
         wfoptalg         114
              wtk        0.25000    0.25000    0.25000    0.25000
           xangst      5.7379744361E+00  6.3131159179E+00  6.2763964399E+00
                       2.5195617624E+00  4.8658019640E+00  9.6024110217E-01
                       7.5118905885E-01  2.3502747242E+00  4.5179208989E+00
                       4.5988114954E+00  6.7504807230E-01  2.6904148439E+00
                       1.3712210413E+00  1.4867399315E+00  1.2046277293E+00
                       4.3070707716E+00  2.1468244600E+00  6.0403440261E+00
                       6.0633771853E+00  4.8686269431E+00  2.4421300536E+00
                       1.9669096993E+00  5.7228079290E+00  4.8016571610E+00
                       1.9536139075E+00  2.8269896061E+00  2.2833021344E+00
                       5.5974598452E+00  1.1962071485E+00  4.8826256222E+00
                       4.7382561114E+00  5.7526573863E+00  1.3060223623E+00
                       1.3708410832E+00  4.3499724611E+00  5.8357145791E+00
                       7.0605730183E+00  8.6560994973E-01  2.3462330451E+00
                       3.1492165899E+00  1.8019071628E+00  4.6200926958E+00
                       1.6689878624E-01  5.3938476800E+00  9.7973265243E-01
                       3.3006945800E+00  6.0959381687E+00  5.9664069305E+00
                       2.3504958695E+00  7.4046529767E+00  1.2860363051E+00
                       9.9541674947E-01 -1.9778066817E-01  4.9650033678E+00
                       5.1212902639E+00  3.7086903717E+00  5.9946337919E+00
                       5.3540159796E+00  3.2562293721E+00  2.4836656101E+00
                       4.9821142392E-01  1.5695659861E+00  6.8527051111E+00
                       5.4623933500E+00  5.9961229863E+00  3.7529511774E+00
                       2.8648219135E+00  5.7804813061E+00  3.2688778615E+00
                       4.9040993504E+00  9.8874077132E-01  1.5839939424E-01
                       2.8912778439E+00  2.5818005715E+00  7.1714872898E+00
                       7.5558783022E+00  4.5215552692E+00  3.5218785609E+00
            xcart      1.0843200242E+01  1.1930060130E+01  1.1860670373E+01
                       4.7612817057E+00  9.1950331289E+00  1.8145927046E+00
                       1.4195415953E+00  4.4413755659E+00  8.5376331889E+00
                       8.6904942630E+00  1.2756559832E+00  5.0841472388E+00
                       2.5912322358E+00  2.8095313014E+00  2.2764165004E+00
                       8.1391841933E+00  4.0569102848E+00  1.1414595958E+01
                       1.1458122321E+01  9.2003715657E+00  4.6149569822E+00
                       3.7169206597E+00  1.0814539697E+01  9.0738170183E+00
                       3.6917952545E+00  5.3422361361E+00  4.3148157127E+00
                       1.0577666147E+01  2.2605039089E+00  9.2268252353E+00
                       8.9540063981E+00  1.0870946996E+01  2.4680245882E+00
                       2.5905142189E+00  8.2202566371E+00  1.1027902344E+01
                       1.3342549346E+01  1.6357657429E+00  4.4337378992E+00
                       5.9511568881E+00  3.4051110546E+00  8.7307099035E+00
                       3.1539299791E-01  1.0192894918E+01  1.8514263965E+00
                       6.2374088046E+00  1.1519653662E+01  1.1274875096E+01
                       4.4417934699E+00  1.3992766235E+01  2.4302564136E+00
                       1.8810650446E+00 -3.7375129722E-01  9.3824966139E+00
                       9.6778360458E+00  7.0084091142E+00  1.1328216134E+01
                       1.0117623913E+01  6.1533817391E+00  4.6934478087E+00
                       9.4148314748E-01  2.9660498613E+00  1.2949735929E+01
                       1.0322427462E+01  1.1331030303E+01  7.0920499154E+00
                       5.4137288360E+00  1.0923526585E+01  6.1772839201E+00
                       9.2674047006E+00  1.8684492742E+00  2.9933147473E-01
                       5.4637232990E+00  4.8788960099E+00  1.3552146943E+01
                       1.4278540685E+01  8.5445011536E+00  6.6553859534E+00
             xred      8.3789106886E-01  8.8710134273E-01  8.7382110119E-01
                       3.7448013728E-01  6.7777259506E-01  1.3368216715E-01
                       1.1422503150E-01  3.2601339271E-01  6.2912221530E-01
                       6.5810153350E-01  1.0721471411E-01  3.7442690577E-01
                       2.0017984870E-01  2.0896897506E-01  1.6770447425E-01
                       6.2086498901E-01  3.0902264521E-01  8.4094175644E-01
                       8.8003819003E-01  6.8914551134E-01  3.3986185348E-01
                       2.9809316528E-01  7.9413633715E-01  6.6863690708E-01
                       2.8736525893E-01  3.9532681976E-01  3.1790550149E-01
                       8.0209090021E-01  1.8210107628E-01  6.7965075736E-01
                       6.9376187170E-01  8.0674820388E-01  1.8174117375E-01
                       2.0875364481E-01  6.0328936088E-01  8.1263090300E-01
                       1.0099440742E+00  1.4105715123E-01  3.2638463135E-01
                       4.5466815221E-01  2.5792510968E-01  6.4322320841E-01
                       4.0440786099E-02  7.4320533582E-01  1.3652004977E-01
                       4.8949084386E-01  8.4965755782E-01  8.3076924260E-01
                       3.5819164312E-01  1.0268266838E+00  1.7910474450E-01
                       1.4117156005E-01 -2.4061090969E-02  6.9131797416E-01
                       7.4186623887E-01  5.2659001094E-01  8.3456675166E-01
                       7.7384178538E-01  4.6494461604E-01  3.4564951730E-01
                       7.5604422842E-02  2.1778068833E-01  9.5423518963E-01
                       7.9771398630E-01  8.4255549207E-01  5.2244219552E-01
                       4.2645700477E-01  8.0482436866E-01  4.5515718757E-01
                       7.0275132430E-01  1.5130267582E-01  2.1838419828E-02
                       4.2015396785E-01  3.6455814498E-01  9.9852854461E-01
                       1.0918585703E+00  6.4599228159E-01  4.9013662683E-01
            znucl       57.00000   42.00000    8.00000
 
================================================================================


- Timing analysis has been suppressed with timopt=0



================================================================================

 Suggested references for the acknowledgment of ABINIT usage.

 The users of ABINIT have little formal obligations with respect to the ABINIT group
 (those specified in the GNU General Public License, http://www.gnu.org/copyleft/gpl.txt).
 However, it is common practice in the scientific literature,
 to acknowledge the efforts of people that have made the research possible.
 In this spirit, please find below suggested citations of work written by ABINIT developers,
 corresponding to implementations inside of ABINIT that you have used in the present run.
 Note also that it will be of great value to readers of publications presenting these results,
 to read papers enabling them to understand the theoretical formalism and details
 of the ABINIT implementation.
 For information on why they are suggested, see also https://docs.abinit.org/theory/acknowledgments.
-
- [1] Implementation of the Projector Augmented-Wave Method in the ABINIT code.
- M. Torrent, F. Jollet, F. Bottin, G. Zerah, and X. Gonze Comput. Mat. Science 42, 337, (2008).
- Comment: PAW calculations. Strong suggestion to cite this paper.
- DOI and bibtex: see https://docs.abinit.org/theory/bibliography/#torrent2008
-
- [2] Libxc: A library of exchange and correlation functionals for density functional theory.
- M.A.L. Marques, M.J.T. Oliveira, T. Burnus, Computer Physics Communications 183, 2227 (2012).
- Comment: to be cited when LibXC is used (negative value of ixc)
- Strong suggestion to cite this paper.
- DOI and bibtex: see https://docs.abinit.org/theory/bibliography/#marques2012
-
- [3] Large scale ab initio calculations based on three levels of parallelization
- F. Bottin, S. Leroux, A. Knyazev, G. Zerah, Comput. Mat. Science 42, 329, (2008).
- Comment: in case LOBPCG algorithm is used (wfoptalg=4/14/114).
- Strong suggestion to cite this paper in your publications.
- This paper is also available at http://www.arxiv.org/abs/0707.3405
- DOI and bibtex: see https://docs.abinit.org/theory/bibliography/#bottin2008
-
- [4] The Abinit project: Impact, environment and recent developments.
- Computer Phys. Comm. 248, 107042 (2020).
- X.Gonze, B. Amadon, G. Antonius, F.Arnardi, L.Baguet, J.-M.Beuken,
- J.Bieder, F.Bottin, J.Bouchet, E.Bousquet, N.Brouwer, F.Bruneval,
- G.Brunin, T.Cavignac, J.-B. Charraud, Wei Chen, M.Cote, S.Cottenier,
- J.Denier, G.Geneste, Ph.Ghosez, M.Giantomassi, Y.Gillet, O.Gingras,
- D.R.Hamann, G.Hautier, Xu He, N.Helbig, N.Holzwarth, Y.Jia, F.Jollet,
- W.Lafargue-Dit-Hauret, K.Lejaeghere, M.A.L.Marques, A.Martin, C.Martins,
- H.P.C. Miranda, F.Naccarato, K. Persson, G.Petretto, V.Planes, Y.Pouillon,
- S.Prokhorenko, F.Ricci, G.-M.Rignanese, A.H.Romero, M.M.Schmitt, M.Torrent,
- M.J.van Setten, B.Van Troeye, M.J.Verstraete, G.Zerah and J.W.Zwanzig
- Comment: the fifth generic paper describing the ABINIT project.
- Note that a version of this paper, that is not formatted for Computer Phys. Comm. 
- is available at https://www.abinit.org/sites/default/files/ABINIT20.pdf .
- The licence allows the authors to put it on the Web.
- DOI and bibtex: see https://docs.abinit.org/theory/bibliography/#gonze2020
-
- [5] ABINIT: Overview, and focus on selected capabilities
- J. Chem. Phys. 152, 124102 (2020).
- A. Romero, D.C. Allan, B. Amadon, G. Antonius, T. Applencourt, L.Baguet,
- J.Bieder, F.Bottin, J.Bouchet, E.Bousquet, F.Bruneval,
- G.Brunin, D.Caliste, M.Cote,
- J.Denier, C. Dreyer, Ph.Ghosez, M.Giantomassi, Y.Gillet, O.Gingras,
- D.R.Hamann, G.Hautier, F.Jollet, G. Jomard,
- A.Martin, 
- H.P.C. Miranda, F.Naccarato, G.Petretto, N.A. Pike, V.Planes,
- S.Prokhorenko, T. Rangel, F.Ricci, G.-M.Rignanese, M.Royo, M.Stengel, M.Torrent,
- M.J.van Setten, B.Van Troeye, M.J.Verstraete, J.Wiktor, J.W.Zwanziger, and X.Gonze.
- Comment: a global overview of ABINIT, with focus on selected capabilities .
- Note that a version of this paper, that is not formatted for J. Chem. Phys 
- is available at https://www.abinit.org/sites/default/files/ABINIT20_JPC.pdf .
- The licence allows the authors to put it on the Web.
- DOI and bibtex: see https://docs.abinit.org/theory/bibliography/#romero2020
-
- [6] Recent developments in the ABINIT software package.
- Computer Phys. Comm. 205, 106 (2016).
- X.Gonze, F.Jollet, F.Abreu Araujo, D.Adams, B.Amadon, T.Applencourt,
- C.Audouze, J.-M.Beuken, J.Bieder, A.Bokhanchuk, E.Bousquet, F.Bruneval
- D.Caliste, M.Cote, F.Dahm, F.Da Pieve, M.Delaveau, M.Di Gennaro,
- B.Dorado, C.Espejo, G.Geneste, L.Genovese, A.Gerossier, M.Giantomassi,
- Y.Gillet, D.R.Hamann, L.He, G.Jomard, J.Laflamme Janssen, S.Le Roux,
- A.Levitt, A.Lherbier, F.Liu, I.Lukacevic, A.Martin, C.Martins,
- M.J.T.Oliveira, S.Ponce, Y.Pouillon, T.Rangel, G.-M.Rignanese,
- A.H.Romero, B.Rousseau, O.Rubel, A.A.Shukri, M.Stankovski, M.Torrent,
- M.J.Van Setten, B.Van Troeye, M.J.Verstraete, D.Waroquier, J.Wiktor,
- B.Xu, A.Zhou, J.W.Zwanziger.
- Comment: the fourth generic paper describing the ABINIT project.
- Note that a version of this paper, that is not formatted for Computer Phys. Comm. 
- is available at https://www.abinit.org/sites/default/files/ABINIT16.pdf .
- The licence allows the authors to put it on the Web.
- DOI and bibtex: see https://docs.abinit.org/theory/bibliography/#gonze2016
-
- Proc.   0 individual time (sec): cpu=      19341.6  wall=      19854.5
 
================================================================================
 
 Calculation completed.
.Delivered   0 WARNINGs and   0 COMMENTs to log file.
+Overall time at end (sec) : cpu=    1185003.1  wall=    1191262.0
