
.Version 9.3.2 of ABINIT 
.(MPI version, prepared for a x86_64_linux_intel19.1 computer) 

.Copyright (C) 1998-2020 ABINIT group . 
 ABINIT comes with ABSOLUTELY NO WARRANTY.
 It is free software, and you are welcome to redistribute it
 under certain conditions (GNU General Public License,
 see ~abinit/COPYING or http://www.gnu.org/copyleft/gpl.txt).

 ABINIT is a project of the Universite Catholique de Louvain,
 Corning Inc. and other collaborators, see ~abinit/doc/developers/contributors.txt .
 Please read https://docs.abinit.org/theory/acknowledgments for suggested
 acknowledgments of the ABINIT effort.
 For more information, see https://www.abinit.org .

.Starting date : Sun  2 Oct 2022.
- ( at 11h02 )
  
- input  file    -> abi.in
- output file    -> abi.out
- root for input  files -> DFPT/abi-i
- root for output files -> abi-o
 
- inpspheads : Reading pseudopotential header in XML form from 
-   ~/ABINIT_PAW_PBE/paw_pbe_standard/La.xml
- inpspheads : Reading pseudopotential header in XML form from 
-   ~/ABINIT_PAW_PBE/paw_pbe_standard/Mo.xml
- inpspheads : Reading pseudopotential header in XML form from 
-   ~/ABINIT_PAW_PBE/paw_pbe_standard/O.xml
 
 DATASET    1 : space group P1 (#  1); Bravais aP (primitive triclinic)
================================================================================
 Values of the parameters that define the memory need for DATASET  1.
     intxc =       0    ionmov =       2      iscf =       7    lmnmax =      32
     lnmax =       8     mgfft =     144  mpssoang =       4    mqgrid =    7021
     natom =     104  nloc_mem =       2    nspden =       1   nspinor =       1
    nsppol =       1      nsym =       1    n1xccc =       1    ntypat =       3
    occopt =       1   xclevel =       2
-    mband =         420        mffmem =           1         mkmem =           1
       mpw =        1465          nfft =      248832          nkpt =           1
Pmy_natom=        11
 PAW method is used; the additional fine FFT grid is defined by:
   mgfftf=       144    nfftf =    248832
================================================================================
P This job should need less than                     177.023 Mbytes of memory.
  Rough estimation (10% accuracy) of disk space for files :
_ WF disk file :     56.334 Mbytes ; DEN or POT disk file :      1.900 Mbytes.
================================================================================
 
--------------------------------------------------------------------------------
------------- Echo of variables that govern the present computation ------------
--------------------------------------------------------------------------------
-
- outvars: echo of selected default values                                      
-   iomode0 =  0 , fftalg0 =512 , wfoptalg0 = 10
-
- outvars: echo of global parameters not present in the input file              
-  max_nthreads =    1
-
 -outvars: echo values of preprocessed input variables --------
-          iomode           1
            acell      1.0000000000E+00  1.0000000000E+00  1.0000000000E+00 Bohr
              amu      1.38905500E+02  9.59400000E+01  1.59994000E+01
        autoparal           1
           bandpp          14
     densfor_pred           6
           diemac      4.00000000E+00
          dilatmx      1.04000000E+00
             ecut      3.00000000E+01 Hartree
           ecutsm      5.00000000E-01 Hartree
-          fftalg         401
           ionmov           2
             iscf           7
              ixc     -116133
           jdtset        1
              kpt      5.00000000E-01  5.00000000E-01  2.50000000E-01
         kptrlatt        1    0    0      0    1    0      0    0    2
          kptrlen      2.68033668E+01
P           mkmem           1
            natom         104
            nband         420
           ndtset           1
            ngfft         144     144      72
          ngfftdg         144     144      72
             nkpt           1
-          npband          10
-           npfft           6
            nstep         100
             nsym           1
            ntime         250
           ntypat           3
              occ      2.000000  2.000000  2.000000  2.000000  2.000000  2.000000
                       2.000000  2.000000  2.000000  2.000000  2.000000  2.000000
                       2.000000  2.000000  2.000000  2.000000  2.000000  2.000000
                       2.000000  2.000000  2.000000  2.000000  2.000000  2.000000
                       2.000000  2.000000  2.000000  2.000000  2.000000  2.000000
                       2.000000  2.000000  2.000000  2.000000  2.000000  2.000000
                       2.000000  2.000000  2.000000  2.000000  2.000000  2.000000
                       2.000000  2.000000  2.000000  2.000000  2.000000  2.000000
                       2.000000  2.000000  2.000000  2.000000  2.000000  2.000000
                       2.000000  2.000000  2.000000  2.000000  2.000000  2.000000
                       2.000000  2.000000  2.000000  2.000000  2.000000  2.000000
                       2.000000  2.000000  2.000000  2.000000  2.000000  2.000000
                       2.000000  2.000000  2.000000  2.000000  2.000000  2.000000
                       2.000000  2.000000  2.000000  2.000000  2.000000  2.000000
                       2.000000  2.000000  2.000000  2.000000  2.000000  2.000000
                       2.000000  2.000000  2.000000  2.000000  2.000000  2.000000
                       2.000000  2.000000  2.000000  2.000000  2.000000  2.000000
                       2.000000  2.000000  2.000000  2.000000  2.000000  2.000000
                       2.000000  2.000000  2.000000  2.000000  2.000000  2.000000
                       2.000000  2.000000  2.000000  2.000000  2.000000  2.000000
                       2.000000  2.000000  2.000000  2.000000  2.000000  2.000000
                       2.000000  2.000000  2.000000  2.000000  2.000000  2.000000
                       2.000000  2.000000  2.000000  2.000000  2.000000  2.000000
                       2.000000  2.000000  2.000000  2.000000  2.000000  2.000000
                       2.000000  2.000000  2.000000  2.000000  2.000000  2.000000
                       2.000000  2.000000  2.000000  2.000000  2.000000  2.000000
                       2.000000  2.000000  2.000000  2.000000  2.000000  2.000000
                       2.000000  2.000000  2.000000  2.000000  2.000000  2.000000
                       2.000000  2.000000  2.000000  2.000000  2.000000  2.000000
                       2.000000  2.000000  2.000000  2.000000  2.000000  2.000000
                       2.000000  2.000000  2.000000  2.000000  2.000000  2.000000
                       2.000000  2.000000  2.000000  2.000000  2.000000  2.000000
                       2.000000  2.000000  2.000000  2.000000  2.000000  2.000000
                       2.000000  2.000000  2.000000  2.000000  2.000000  2.000000
                       2.000000  2.000000  2.000000  2.000000  2.000000  2.000000
                       2.000000  2.000000  2.000000  2.000000  2.000000  2.000000
                       2.000000  2.000000  2.000000  2.000000  2.000000  2.000000
                       2.000000  2.000000  2.000000  2.000000  2.000000  2.000000
                       2.000000  2.000000  2.000000  2.000000  2.000000  2.000000
                       2.000000  2.000000  2.000000  2.000000  2.000000  2.000000
                       2.000000  2.000000  2.000000  2.000000  2.000000  2.000000
                       2.000000  2.000000  2.000000  2.000000  2.000000  2.000000
                       2.000000  2.000000  2.000000  2.000000  2.000000  2.000000
                       2.000000  2.000000  2.000000  2.000000  2.000000  2.000000
                       2.000000  2.000000  2.000000  2.000000  2.000000  2.000000
                       2.000000  2.000000  2.000000  2.000000  2.000000  2.000000
                       2.000000  2.000000  2.000000  2.000000  2.000000  2.000000
                       2.000000  2.000000  2.000000  2.000000  2.000000  2.000000
                       2.000000  2.000000  2.000000  2.000000  2.000000  2.000000
                       2.000000  2.000000  2.000000  2.000000  2.000000  2.000000
                       2.000000  2.000000  2.000000  2.000000  2.000000  2.000000
                       2.000000  2.000000  2.000000  2.000000  2.000000  2.000000
                       2.000000  2.000000  2.000000  2.000000  2.000000  2.000000
                       2.000000  2.000000  2.000000  2.000000  2.000000  2.000000
                       2.000000  2.000000  2.000000  2.000000  2.000000  2.000000
                       2.000000  2.000000  2.000000  2.000000  2.000000  2.000000
                       2.000000  2.000000  2.000000  2.000000  2.000000  2.000000
                       2.000000  2.000000  2.000000  2.000000  2.000000  2.000000
                       2.000000  2.000000  2.000000  2.000000  2.000000  2.000000
                       2.000000  2.000000  2.000000  2.000000  2.000000  2.000000
                       2.000000  2.000000  2.000000  2.000000  2.000000  2.000000
                       2.000000  2.000000  2.000000  2.000000  2.000000  2.000000
                       2.000000  2.000000  2.000000  2.000000  2.000000  2.000000
                       2.000000  2.000000  2.000000  2.000000  2.000000  2.000000
                       2.000000  2.000000  2.000000  2.000000  2.000000  2.000000
                       2.000000  2.000000  2.000000  2.000000  2.000000  2.000000
                       2.000000  2.000000  2.000000  2.000000  2.000000  2.000000
                       2.000000  2.000000  2.000000  2.000000  2.000000  2.000000
                       2.000000  2.000000  2.000000  2.000000  2.000000  2.000000
                       2.000000  2.000000  0.000000  0.000000  0.000000  0.000000
          optcell           2
        paral_kgb           1
        pawecutdg      3.00000000E+01 Hartree
         pawmixdg           1
         pawxcdev           0
           prteig           0
            rprim      2.6787924828E+01 -4.6568177499E-01  7.8146955304E-01
                      -4.5547805023E-01  2.7390206825E+01 -1.1300589450E-01
                       3.8924276577E-01 -4.5979464898E-02  1.3611278190E+01
           shiftk      5.00000000E-01  5.00000000E-01  5.00000000E-01
          spgroup           1
        strtarget      0.00000000E+00  0.00000000E+00  0.00000000E+00
                       0.00000000E+00  1.69946000E-05  0.00000000E+00
           tolmxf      1.00000000E-08
           tolvrs      1.00000000E-20
            typat      1  1  1  1  1  1  1  1  1  1  1  1  1  1  1  1  2  2  2  2
                       2  2  2  2  2  2  2  2  2  2  2  2  3  3  3  3  3  3  3  3
                       3  3  3  3  3  3  3  3  3  3  3  3  3  3  3  3  3  3  3  3
                       3  3  3  3  3  3  3  3  3  3  3  3  3  3  3  3  3  3  3  3
                       3  3  3  3  3  3  3  3  3  3  3  3  3  3  3  3  3  3  3  3
                       3  3  3  3
           useylm           1
         wfoptalg         114
           xangst      6.1243290395E+00  6.1811442510E+00  6.1891063968E+00
                       2.0802505331E+00  4.2670357315E+00  9.0810285086E-01
                       1.5712523073E+00  2.4693582160E+00  4.4683924306E+00
                       4.5564166172E+00  8.0234578907E-01  2.4391550715E+00
                       1.3024523843E+01  5.9337333525E+00  6.6997909529E+00
                       9.7019408875E+00  4.6519333705E+00  1.4581458695E+00
                       8.1830065030E+00  2.7585417706E+00  5.3015794479E+00
                       1.1665230041E+01  8.1418136749E-01  3.0610223144E+00
                       6.1116226937E+00  1.3498834109E+01  6.2029984479E+00
                       2.6361925638E+00  1.1938745768E+01  1.1517026113E+00
                       1.4156204197E+00  9.7308770045E+00  4.6410864321E+00
                       4.6747951214E+00  8.2033219233E+00  2.5642714575E+00
                       1.2796949939E+01  1.3287552757E+01  6.5618991411E+00
                       9.2591351838E+00  1.1650478500E+01  1.7052925815E+00
                       7.8980141604E+00  9.7292329434E+00  4.9425703152E+00
                       1.1386045257E+01  8.0108652817E+00  2.6919023322E+00
                       1.2603658596E+00  9.2472089543E-01  1.1808553306E+00
                       4.7689876071E+00  2.4162977504E+00  5.7523102153E+00
                       5.6214958470E+00  4.6608680945E+00  2.4324793658E+00
                       2.3745176144E+00  5.7855160069E+00  4.7192754059E+00
                       8.4921668485E+00  1.2531672682E+00  1.4421915355E+00
                       1.1959344362E+01  2.0255275743E+00  6.2376393926E+00
                       1.3036783817E+01  4.5172160264E+00  2.7475255122E+00
                       9.5134808670E+00  5.9927167571E+00  5.3168848166E+00
                       1.2100731196E+00  8.1551530499E+00  1.2062129456E+00
                       4.5572770107E+00  9.5611945304E+00  6.0043636758E+00
                       5.9366935626E+00  1.2178149640E+01  2.3130584305E+00
                       1.9141383816E+00  1.3030869381E+01  5.1014463281E+00
                       8.0334345945E+00  8.3739343883E+00  1.6134907343E+00
                       1.1916036431E+01  9.4564661256E+00  6.1430213064E+00
                       1.2792694500E+01  1.1745923094E+01  2.7090874299E+00
                       9.5047345774E+00  1.3301324158E+01  5.4219536000E+00
                       1.0554993302E+00  4.9355354110E+00  5.6134712894E+00
                       2.4272141938E+00  2.1681339955E+00  2.1626840021E+00
                       4.6315024565E+00  5.0598093644E+00  9.9932520096E-01
                       6.2514254184E+00  1.2867712028E+00  5.2752154688E+00
                       8.3308068741E+00  4.9259242556E+00  6.4295511237E+00
                       8.6605956671E+00  2.0942153250E+00  2.9830775173E+00
                       1.1778547572E+01  5.7794930356E+00  1.8449357652E+00
                       1.3350684697E+01  1.6778958960E+00  5.1949583709E+00
                       7.6136563487E-01  1.1866790103E+01  5.8055185152E+00
                       2.1002117641E+00  9.5023059492E+00  2.0125653621E+00
                       4.7313034386E+00  1.3205692053E+01  1.1184662807E+00
                       5.8546685822E+00  8.4166941952E+00  5.2681361485E+00
                       8.0892977165E+00  1.2153002911E+01  5.5526264695E+00
                       9.2544025785E+00  9.3878390437E+00  2.7694461041E+00
                       1.2105061333E+01  1.3143194131E+01  1.8149428292E+00
                       1.3097764101E+01  9.0871108992E+00  4.8499960899E+00
                       1.3486173561E+00  2.1968781980E+00  7.0986153564E+00
                       1.4037021360E+01  7.5241784238E-01  2.6651585099E+00
                       2.3125752926E+00  1.4202706356E+01  1.7744732177E+00
                       5.5690281169E+00  6.0196683305E+00  3.5969657827E+00
                       5.2179595031E+00  3.0851222692E+00  3.1208381505E+00
                       7.2736034294E+00  4.4836008716E+00  1.8951076287E+00
                       4.3871098972E+00  1.8606065660E+00  1.9385430343E-01
                       6.0140360205E+00  3.8015260220E+00  5.6868433925E+00
                       3.7088454155E+00  1.3476331248E+00  4.6375833555E+00
                       3.6942615754E+00  6.3411116195E+00  5.7414461131E+00
                       2.8801559902E+00  4.8303076489E+00  3.3037933583E+00
                       1.6476069974E+00  7.2688062621E+00  4.0981308436E+00
                      -5.7707831527E-02  5.3670201995E+00  8.8581668495E-01
                       1.2918519824E+01  5.3702092189E+00  4.2828294498E+00
                       1.1772201731E+01  3.2158559950E+00  2.5824191595E+00
                       6.8103454988E+00  8.4125336842E-01  1.1072206214E+00
                       9.3740304534E+00  2.4483161284E+00  7.5031805283E+00
                       9.3269474242E+00  1.4377913646E+01  1.5713885806E+00
                       1.0720058717E+01  5.5368005019E+00  6.6484050463E+00
                       9.3391689082E+00  4.8423233921E+00  3.9551704343E+00
                       8.2247208592E+00  7.2702864626E+00  5.3335805885E+00
                       1.1837246732E+01  9.5761063143E-01  4.7569560906E-01
                       1.2334236562E+01  3.5824430124E+00  6.9511316433E+00
                       1.0604251562E+01  2.3334446604E+00  5.0895986432E+00
                       4.3123964102E+00  8.6076416637E+00  2.9580102441E-01
                       5.6382683132E+00  1.0979062599E+01  6.0218179723E+00
                       3.6360017333E+00  9.1812854137E+00  4.3940796827E+00
                       2.2929722668E+00  6.7744966127E+00  1.3655882458E+00
                       9.3850407447E-01  8.3283695356E+00  6.6935298545E+00
                       1.3858314550E+01  7.7752416202E+00  2.4681132484E+00
                       5.5575570994E+00  1.3385068793E+01  3.6160384257E+00
                       4.7847865501E+00  1.0805692332E+01  2.1881175461E+00
                       7.1510955788E+00  1.2532469764E+01  9.4725436640E-01
                       1.2739456281E+00 -3.1867015500E-02  4.6121244937E+00
                       3.3633401577E+00  1.3260800737E+01  6.1115929604E+00
                       2.4046666861E+00  1.2035124611E+01  3.6971204075E+00
                       9.2827578510E+00  7.0472256987E+00  1.6858852850E+00
                       6.8425851363E+00  8.8299905443E+00  2.9451892460E+00
                       8.3965383820E+00  9.5973805583E+00  7.5404871201E+00
                       1.1719496020E+01  8.1650559033E+00  1.6206675216E-01
                       1.2472328667E+01  1.0866686957E+01  7.0184061690E+00
                       1.0348117624E+01  9.8508930635E+00  5.4610061063E+00
                       8.7161383795E+00  2.3143024014E-01  5.9089040824E+00
                       1.0413739885E+01  1.2544491315E+01  6.8001305860E+00
                       9.8399891704E+00  1.2896267628E+01  3.6841565140E+00
                       2.2139676939E-01  1.1553787477E+01  1.7476465859E+00
                       1.2887434817E+01  1.2177110689E+01  4.3972856470E+00
                       1.1622429324E+01  1.0438505544E+01  2.4841544247E+00
                       8.0540640465E-01 -4.0646826849E-01  1.6326638122E-02
                       3.3351447564E+00  3.6392253095E+00  5.7578231902E+00
                       1.4503444762E+01  3.5209984939E+00  3.1555534468E+00
                       1.0815756538E+01  7.1642109563E+00  4.7571474162E+00
                       2.9287843143E+00  1.0414102520E+01  6.4294257213E+00
                       7.3436650604E+00  1.1384795334E+01  3.1665613077E+00
                       6.6636443180E+00  7.3216835687E+00  9.8359773245E-01
                       1.1183082136E+01  1.4420456455E+01  5.2028139827E+00
            xcart      1.1573304632E+01  1.1680669822E+01  1.1695716097E+01
                       3.9311037953E+00  8.0635289318E+00  1.7160656886E+00
                       2.9692365465E+00  4.6664107522E+00  8.4440379480E+00
                       8.6103795539E+00  1.5162138052E+00  4.6093350808E+00
                       2.4612783074E+01  1.1213130982E+01  1.2660770049E+01
                       1.8334011235E+01  8.7908800588E+00  2.7554963552E+00
                       1.5463641234E+01  5.2128884726E+00  1.0018533228E+01
                       2.2044090054E+01  1.5385798071E+00  5.7844938608E+00
                       1.1549293119E+01  2.5509099579E+01  1.1721968269E+01
                       4.9816819792E+00  2.2560959872E+01  2.1764025220E+00
                       2.6751349013E+00  1.8388692571E+01  8.7703823158E+00
                       8.8340825067E+00  1.5502031815E+01  4.8457707850E+00
                       2.4182730722E+01  2.5109835688E+01  1.2400192288E+01
                       1.7497229725E+01  2.2016213682E+01  3.2225359554E+00
                       1.4925083757E+01  1.8385585746E+01  9.3401042882E+00
                       2.1516507272E+01  1.5138341470E+01  5.0869581844E+00
                       2.3817463019E+00  1.7474692417E+00  2.2314931773E+00
                       9.0120805086E+00  4.5661410038E+00  1.0870290938E+01
                       1.0623087608E+01  8.8077642402E+00  4.5967198253E+00
                       4.4871879889E+00  1.0933040790E+01  8.9181380629E+00
                       1.6047869618E+01  2.3681429356E+00  2.7253470333E+00
                       2.2599885574E+01  3.8276923900E+00  1.1787430168E+01
                       2.4635951068E+01  8.5363011730E+00  5.1920707611E+00
                       1.7977873409E+01  1.1324593463E+01  1.0047456183E+01
                       2.2867067967E+00  1.5411005836E+01  2.2794121251E+00
                       8.6120054620E+00  1.8068039166E+01  1.1346602950E+01
                       1.1218724968E+01  2.3013367625E+01  4.3710469631E+00
                       3.6171973216E+00  2.4624774404E+01  9.6403364417E+00
                       1.5180991290E+01  1.5824442649E+01  3.0490556058E+00
                       2.2518045444E+01  1.7870131162E+01  1.1608627898E+01
                       2.4174689106E+01  2.2196577825E+01  5.1194333126E+00
                       1.7961345317E+01  2.5135859864E+01  1.0246007409E+01
                       1.9946046674E+00  9.3268102459E+00  1.0607923392E+01
                       4.5867700922E+00  4.0971794710E+00  4.0868804759E+00
                       8.7522712267E+00  9.5616539833E+00  1.8884509475E+00
                       1.1813481981E+01  2.4316451689E+00  9.9687125281E+00
                       1.5742943458E+01  9.3086477945E+00  1.2150090781E+01
                       1.6366153959E+01  3.9574934275E+00  5.6371995408E+00
                       2.2258229153E+01  1.0921659024E+01  3.4864233290E+00
                       2.5229137763E+01  3.1707637228E+00  9.8170485927E+00
                       1.4387725369E+00  2.2424983372E+01  1.0970840053E+01
                       3.9688250552E+00  1.7956755875E+01  3.8031973588E+00
                       8.9408677505E+00  2.4955141376E+01  2.1135949593E+00
                       1.1063720219E+01  1.5905246973E+01  9.9553345515E+00
                       1.5286557291E+01  2.2965847193E+01  1.0492943346E+01
                       1.7488286397E+01  1.7740444772E+01  5.2334946765E+00
                       2.2875250741E+01  2.4837037419E+01  3.4297448941E+00
                       2.4751187105E+01  1.7172150939E+01  9.1651643555E+00
                       2.5485174611E+00  4.1514981415E+00  1.3414438946E+01
                       2.6526126093E+01  1.4218636596E+00  5.0364196844E+00
                       4.3701339647E+00  2.6839225358E+01  3.3532684115E+00
                       1.0523937967E+01  1.1375524555E+01  6.7972802387E+00
                       9.8605144333E+00  5.8300361752E+00  5.8975294096E+00
                       1.3745118481E+01  8.4727777364E+00  3.5812344106E+00
                       8.2904362205E+00  3.5160368508E+00  3.6633154316E-01
                       1.1364881032E+01  7.1838430686E+00  1.0746576572E+01
                       7.0087021046E+00  2.5466575334E+00  8.7637624604E+00
                       6.9811426407E+00  1.1982964339E+01  1.0849760760E+01
                       5.4427060415E+00  9.1279585939E+00  6.2432646468E+00
                       3.1135259996E+00  1.3736053148E+01  7.7443449511E+00
                      -1.0905199731E-01  1.0142198327E+01  1.6739509385E+00
                       2.4412464510E+01  1.0148224700E+01  8.0933747340E+00
                       2.2246237252E+01  6.0770871134E+00  4.8800649718E+00
                       1.2869687863E+01  1.5897384747E+00  2.0923437431E+00
                       1.7714350318E+01  4.6266469693E+00  1.4178956324E+01
                       1.7625376288E+01  2.7170319152E+01  2.9694940657E+00
                       2.0257975103E+01  1.0463036601E+01  1.2563664758E+01
                       1.7648471545E+01  9.1506650580E+00  7.4741889296E+00
                       1.5542469943E+01  1.3738850322E+01  1.0079006620E+01
                       2.2369154490E+01  1.8096218353E+00  8.9893442374E-01
                       2.3308329161E+01  6.7698361802E+00  1.3135735119E+01
                       2.0039131296E+01  4.4095713544E+00  9.6179475619E+00
                       8.1492481917E+00  1.6266085394E+01  5.5898292597E-01
                       1.0654782976E+01  2.0747421509E+01  1.1379586790E+01
                       6.8710474947E+00  1.7350114980E+01  8.3036072064E+00
                       4.3330896146E+00  1.2801943286E+01  2.5805877949E+00
                       1.7735156753E+00  1.5738337556E+01  1.2648938287E+01
                       2.6188419162E+01  1.4693077279E+01  4.6640581044E+00
                       1.0502260886E+01  2.5294114289E+01  6.8333223105E+00
                       9.0419361841E+00  2.0419799183E+01  4.1349429087E+00
                       1.3513612194E+01  2.3682935623E+01  1.7900513307E+00
                       2.4074083454E+00 -6.0219931967E-02  8.7156521838E+00
                       6.3557917898E+00  2.5059281696E+01  1.1549236931E+01
                       4.5441614776E+00  2.2743089490E+01  6.9865450505E+00
                       1.7541870096E+01  1.3317326567E+01  3.1858614801E+00
                       1.2930611949E+01  1.6686263885E+01  5.5656010845E+00
                       1.5867158006E+01  1.8136420848E+01  1.4249455565E+01
                       2.2146637893E+01  1.5429719517E+01  3.0626177683E-01
                       2.3569285420E+01  2.0535062321E+01  1.3262865549E+01
                       1.9555108300E+01  1.8615490054E+01  1.0319805951E+01
                       1.6471114474E+01  4.3733977273E-01  1.1166210461E+01
                       1.9679116402E+01  2.3705653062E+01  1.2850384475E+01
                       1.8594884683E+01  2.4370413953E+01  6.9620468421E+00
                       4.1837926085E-01  2.1833494129E+01  3.3025734245E+00
                       2.4353722359E+01  2.3011404292E+01  8.3096656009E+00
                       2.1963208421E+01  1.9725916714E+01  4.6943715344E+00
                       1.5219975305E+00 -7.6811370915E-01  3.0852874721E-02
                       6.3025102032E+00  6.8771391708E+00  1.0880708951E+01
                       2.7407538583E+01  6.6537228678E+00  5.9631318122E+00
                       2.0438817776E+01  1.3538396666E+01  8.9897057905E+00
                       5.5346002564E+00  1.9679801683E+01  1.2149853805E+01
                       1.3877515776E+01  2.1514145260E+01  5.9839336545E+00
                       1.2592462808E+01  1.3835976776E+01  1.8587303393E+00
                       2.1132962559E+01  2.7250713411E+01  9.8318935476E+00
             xred      4.2725121494E-01  4.3512558520E-01  8.3834918940E-01
                       1.5005890100E-01  2.9714718557E-01  1.1992838491E-01
                       1.0483927133E-01  1.7318402103E-01  6.1578934379E-01
                       3.1780700385E-01  6.1298029358E-02  3.2090341269E-01
                       9.1324598450E-01  4.2639084932E-01  8.8127511826E-01
                       6.8766586569E-01  3.3291948185E-01  1.6572494154E-01
                       5.7043915010E-01  2.0120131208E-01  7.0496607306E-01
                       8.1861324880E-01  7.0725984108E-02  3.7856584167E-01
                       4.3485894003E-01  9.4013213745E-01  8.4403386373E-01
                       1.9777609980E-01  8.2731052160E-01  1.5541064239E-01
                       1.0196756862E-01  6.7417497157E-01  6.4408965778E-01
                       3.3454526531E-01  5.7223109199E-01  3.4155494198E-01
                       9.0602718917E-01  9.3360408689E-01  8.6675639320E-01
                       6.6405635536E-01  8.1543366612E-01  2.0539914798E-01
                       5.5916422884E-01  6.8186099901E-01  6.5976087293E-01
                       8.0803238304E-01  5.6698712965E-01  3.3204657960E-01
                       8.7708942418E-02  6.5557930060E-02  1.5945304413E-01
                       3.2802318704E-01  1.7359547850E-01  7.8123214947E-01
                       3.9753896506E-01  3.2885822877E-01  3.1762029149E-01
                       1.6492954061E-01  4.0305244345E-01  6.4907922879E-01
                       5.9829685105E-01  9.6911382115E-02  1.6668146711E-01
                       8.3439401036E-01  1.5530841204E-01  8.1938869104E-01
                       9.2042650868E-01  3.2786030034E-01  3.3133079439E-01
                       6.6814176709E-01  4.2599439064E-01  7.0334787659E-01
                       9.2537341361E-02  5.6449993406E-01  1.6683876405E-01
                       3.2089508163E-01  6.6648678063E-01  8.2072748735E-01
                       4.2880572497E-01  8.4800425575E-01  3.0355546089E-01
                       1.4009457051E-01  9.0260560065E-01  7.0771138604E-01
                       5.7385796519E-01  5.8782641872E-01  1.9594272421E-01
                       8.4019133800E-01  6.6807251814E-01  8.1017667311E-01
                       9.1169498629E-01  8.2643917682E-01  3.3063492457E-01
                       6.7583478988E-01  9.3039700235E-01  7.2168119015E-01
                       6.8982915596E-02  3.4299548122E-01  7.7823520370E-01
                       1.6958619066E-01  1.5295864901E-01  2.9179032306E-01
                       3.3097660655E-01  3.5492338005E-01  1.2268585047E-01
                       4.3236197009E-01  9.7317949693E-02  7.0837082161E-01
                       5.8113100146E-01  3.5118075060E-01  8.6219970883E-01
                       6.0806661983E-01  1.5546271125E-01  3.8053606147E-01
                       8.3485731076E-01  4.1329253543E-01  2.1164156752E-01
                       9.3435101087E-01  1.3277083054E-01  6.6870175492E-01
                       5.5905668392E-02  8.2103226014E-01  8.0961778950E-01
                       1.5534718636E-01  6.5869480507E-01  2.7596487308E-01
                       3.4728353977E-01  9.1724163817E-01  1.4295917925E-01
                       4.1267020520E-01  5.8890336353E-01  7.1259985776E-01
                       5.7426991367E-01  8.4948347693E-01  7.4498260865E-01
                       6.5893869686E-01  6.5948723403E-01  3.5214033726E-01
                       8.6656389778E-01  9.2187075265E-01  2.0987951178E-01
                       9.2582413803E-01  6.4373564247E-01  6.2554058359E-01
                       8.3496711370E-02  1.5463680914E-01  9.8202854228E-01
                       9.8684224213E-01  6.9216442009E-02  3.1393483587E-01
                       1.7630594910E-01  9.8329178088E-01  2.4440088588E-01
                       3.9307079511E-01  4.2280278453E-01  4.8032862864E-01
                       3.6581503859E-01  2.1976576925E-01  4.1410445394E-01
                       5.1509226011E-01  3.1848997161E-01  2.3617890191E-01
                       3.1160987061E-01  1.3368332076E-01  1.0133135050E-02
                       4.1769953618E-01  2.7066831685E-01  7.6780035439E-01
                       2.5415350143E-01  9.8355707260E-02  6.3008513177E-01
                       2.5672136719E-01  4.4317508433E-01  7.8605565737E-01
                       2.0237854318E-01  3.3745225922E-01  4.4986561777E-01
                       1.1657458704E-01  5.0442793072E-01  5.6646030466E-01
                       3.9741190209E-04  3.7050390023E-01  1.2603588538E-01
                       9.0997434388E-01  3.8689260365E-01  5.4557540676E-01
                       8.2993319049E-01  2.3650629491E-01  3.1284527422E-01
                       4.7971639893E-01  6.6409161230E-02  1.2673053815E-01
                       6.4975340806E-01  1.8165165847E-01  1.0059100502E+00
                       6.7229580355E-01  1.0037176686E+00  1.8789869268E-01
                       7.5013839856E-01  3.9623556149E-01  8.8325513779E-01
                       6.5723463720E-01  3.4612270615E-01  5.1425691840E-01
                       5.7858174233E-01  5.1262851053E-01  7.1152705224E-01
                       8.3614001306E-01  8.0315458703E-02  1.8704531504E-02
                       8.6124736943E-01  2.6334607356E-01  9.1780184101E-01
                       7.4136638839E-01  1.7471250351E-01  6.6550221942E-01
                       3.1399553923E-01  5.9925051414E-01  2.8015283159E-02
                       3.9885614004E-01  7.6563283195E-01  8.1949789929E-01
                       2.5863463019E-01  6.3884758432E-01  6.0050830982E-01
                       1.6708373879E-01  4.7054069739E-01  1.8390563897E-01
                       6.2499662673E-02  5.7722187387E-01  9.3050233794E-01
                       9.8280785201E-01  5.5363310524E-01  2.9083142969E-01
                       4.0081095532E-01  9.3110451554E-01  4.8675230633E-01
                       3.4610599530E-01  7.5188610072E-01  2.9015931623E-01
                       5.1773665542E-01  8.7363523498E-01  1.0904059181E-01
                       8.0636202159E-02  2.3949943481E-04  6.3569816082E-01
                       2.4067358256E-01  9.2040520093E-01  8.4232861212E-01
                       1.7640669787E-01  8.3419203875E-01  5.1008855361E-01
                       6.6039596973E-01  4.9777169175E-01  2.0027753706E-01
                       4.8760410528E-01  6.1814362865E-01  3.8603334107E-01
                       5.8898121594E-01  6.7387356613E-01  1.0186652693E+00
                       8.3686080694E-01  5.7752306494E-01 -2.0751611233E-02
                       8.7935833502E-01  7.6623507287E-01  9.3027728086E-01
                       7.3129482232E-01  6.9328558693E-01  7.2195032191E-01
                       6.0391952893E-01  2.7554019196E-02  7.8592027540E-01
                       7.3637100691E-01  8.7952488849E-01  9.0912288162E-01
                       7.0254198236E-01  9.0249712660E-01  4.7864859400E-01
                       2.5585786093E-02  7.9797872323E-01  2.4779121872E-01
                       9.1548578237E-01  8.5664595980E-01  5.6504960603E-01
                       8.2797614122E-01  7.3476782385E-01  3.0345177190E-01
                       5.6373350632E-02 -2.7086929507E-02 -1.1947566475E-03
                       2.2817579589E-01  2.5628311242E-01  7.8841662528E-01
                       1.0220224141E+00  2.6094017733E-01  3.8159092179E-01
                       7.6260673301E-01  5.0828667661E-01  6.2089622446E-01
                       2.0602377911E-01  7.2348917829E-01  8.8680951692E-01
                       5.2552480597E-01  7.9510180125E-01  4.1605961839E-01
                       4.7716186788E-01  5.1344619970E-01  1.1342544713E-01
                       7.9611149858E-01  1.0095923899E+00  6.8500888834E-01
            znucl       57.00000   42.00000    8.00000
 
================================================================================
 
 chkinp: Checking input parameters for consistency, jdtset=   1.
 
================================================================================
== DATASET  1 ==================================================================
-   mpi_nproc: 60, omp_nthreads: 1 (-1 if OMP is not activated)
 

--- !DatasetInfo
iteration_state: {dtset: 1, }
dimensions: {natom: 104, nkpt: 1, mband: 420, nsppol: 1, nspinor: 1, nspden: 1, mpw: 1465, }
cutoff_energies: {ecut:  30.0, pawecutdg:  30.0, }
electrons: {nelect:   8.32000000E+02, charge:   0.00000000E+00, occopt:   1.00000000E+00, tsmear:   1.00000000E-02, }
meta: {optdriver: 0, ionmov: 2, optcell: 2, iscf: 7, paral_kgb: 1, }
...

 Real(R)+Recip(G) space primitive vectors, cartesian coordinates (Bohr,Bohr^-1):
 R(1)= 26.7879248 -0.4656818  0.7814696  G(1)=  0.0373721  0.0006171 -0.0010666
 R(2)= -0.4554781 27.3902068 -0.1130059  G(2)=  0.0006318  0.0365203  0.0001053
 R(3)=  0.3892428 -0.0459795 13.6112782  G(3)= -0.0021404  0.0002678  0.0735306
 Unit cell volume ucvol=  9.9756386E+03 bohr^3
 Angles (23,13,12)=  9.04569324E+01  8.66881219E+01  9.19546772E+01 degrees
 
 Coarse grid specifications (used for wave-functions):
 
 getcut: wavevector=  0.0000  0.0000  0.0000  ngfft= 144 144  72
         ecut(hartree)=     32.448   => boxcut(ratio)=   2.05005
 
 Fine grid specifications (used for densities):
 
 getcut: wavevector=  0.0000  0.0000  0.0000  ngfft= 144 144  72
         ecut(hartree)=     32.448   => boxcut(ratio)=   2.05005
 
--- Pseudopotential description ------------------------------------------------
- pspini: atom type   1  psp file is ~/ABINIT_PAW_PBE/paw_pbe_standard/La.xml
- pspatm: opening atomic psp file    ~/ABINIT_PAW_PBE/paw_pbe_standard/La.xml
- pspatm : Reading pseudopotential header in XML form from ~/ABINIT_PAW_PBE/paw_pbe_standard/La.xml
 Pseudopotential format is: paw10
 basis_size (lnmax)=  8 (lmn_size= 32), orbitals=   0   0   1   1   2   2   3   3
 Spheres core radius: rc_sph= 2.51647158
 1 radial meshes are used:
  - mesh 1: r(i)=AA*[exp(BB*(i-1))-1], size=1500 , AA= 0.15403E-03 BB= 0.87795E-02
 Shapefunction is SIN type: shapef(r)=[sin(pi*r/rshp)/(pi*r/rshp)]**2
 Radius for shape functions =  2.30494653
 mmax= 1500
 Radial grid used for partial waves is grid 1
 Radial grid used for projectors is grid 1
 Radial grid used for (t)core density is grid 1
 Radial grid used for Vloc is grid 1
 Radial grid used for pseudo valence density is grid 1
 Mesh size for Vloc has been set to 1342 to avoid numerical noise.
 Compensation charge density is not taken into account in XC energy/potential
 pspatm: atomic psp has been read  and splines computed
 
- pspini: atom type   2  psp file is ~/ABINIT_PAW_PBE/paw_pbe_standard/Mo.xml
- pspatm: opening atomic psp file    ~/ABINIT_PAW_PBE/paw_pbe_standard/Mo.xml
- pspatm : Reading pseudopotential header in XML form from ~/ABINIT_PAW_PBE/paw_pbe_standard/Mo.xml
 Pseudopotential format is: paw10
 basis_size (lnmax)=  6 (lmn_size= 18), orbitals=   0   0   1   1   2   2
 Spheres core radius: rc_sph= 2.20000000
 1 radial meshes are used:
  - mesh 1: r(i)=AA*[exp(BB*(i-1))-1], size= 846 , AA= 0.34789E-03 BB= 0.14611E-01
 Shapefunction is SIN type: shapef(r)=[sin(pi*r/rshp)/(pi*r/rshp)]**2
 Radius for shape functions =  1.90088266
 mmax=  846
 Radial grid used for partial waves is grid 1
 Radial grid used for projectors is grid 1
 Radial grid used for (t)core density is grid 1
 Radial grid used for Vloc is grid 1
 Radial grid used for pseudo valence density is grid 1
 Mesh size for Vloc has been set to  751 to avoid numerical noise.
 Compensation charge density is not taken into account in XC energy/potential
 pspatm: atomic psp has been read  and splines computed
 
- pspini: atom type   3  psp file is ~/ABINIT_PAW_PBE/paw_pbe_standard/O.xml
- pspatm: opening atomic psp file    ~/ABINIT_PAW_PBE/paw_pbe_standard/O.xml
- pspatm : Reading pseudopotential header in XML form from ~/ABINIT_PAW_PBE/paw_pbe_standard/O.xml
 Pseudopotential format is: paw10
 basis_size (lnmax)=  4 (lmn_size=  8), orbitals=   0   0   1   1
 Spheres core radius: rc_sph= 1.41465230
 1 radial meshes are used:
  - mesh 1: r(i)=AA*[exp(BB*(i-1))-1], size=2001 , AA= 0.72565E-03 BB= 0.58052E-02
 Shapefunction is SIN type: shapef(r)=[sin(pi*r/rshp)/(pi*r/rshp)]**2
 Radius for shape functions =  1.20231231
 mmax= 2001
 Radial grid used for partial waves is grid 1
 Radial grid used for projectors is grid 1
 Radial grid used for (t)core density is grid 1
 Radial grid used for Vloc is grid 1
 Radial grid used for pseudo valence density is grid 1
 Mesh size for Vloc has been set to 1762 to avoid numerical noise.
 Compensation charge density is not taken into account in XC energy/potential
 pspatm: atomic psp has been read  and splines computed
 
   1.43661083E+06                                ecore*ucvol(ha*bohr**3)
--------------------------------------------------------------------------------
 
_setup2: Arith. and geom. avg. npw (full set) are    1465.000    1465.000
 
================================================================================
 
=== [ionmov= 2] Broyden-Fletcher-Goldfard-Shanno method (forces)            
================================================================================
 
--- Iteration: (  1/250) Internal Cycle: (1/1)
--------------------------------------------------------------------------------
 
---SELF-CONSISTENT-FIELD CONVERGENCE--------------------------------------------

--- !BeginCycle
iteration_state: {dtset: 1, itime: 1, icycle: 1, }
solver: {iscf: 7, nstep: 100, nline: 4, wfoptalg: 114, }
tolerances: {tolvrs: 1.00E-20, }
...
 
     iter   Etot(hartree)      deltaE(h)  residm     vres2
 ETOT  1  -2758.5320611866    -2.759E+03 1.426E-02 7.232E+04
 ETOT  2  -2738.7700991558     1.976E+01 4.958E-04 1.541E+05
 ETOT  3  -2774.9012214908    -3.613E+01 1.343E-04 1.035E+04
 ETOT  4  -2777.3696059678    -2.468E+00 8.614E-05 4.221E+02
 ETOT  5  -2777.3530946570     1.651E-02 6.001E-05 3.166E+02
 ETOT  6  -2777.4138588391    -6.076E-02 4.555E-05 5.059E+01
 ETOT  7  -2777.4228436618    -8.985E-03 3.417E-05 3.705E+00
 ETOT  8  -2777.4235292323    -6.856E-04 2.513E-05 1.917E+00
 ETOT  9  -2777.4239181817    -3.889E-04 2.105E-05 4.525E-01
 ETOT 10  -2777.4239772412    -5.906E-05 1.536E-05 1.493E-01
 ETOT 11  -2777.4239969119    -1.967E-05 1.353E-05 6.477E-02
 ETOT 12  -2777.4240100529    -1.314E-05 1.254E-05 8.501E-03
 ETOT 13  -2777.4240111695    -1.117E-06 8.439E-06 2.394E-03
 ETOT 14  -2777.4240116240    -4.545E-07 7.273E-06 3.196E-04
 ETOT 15  -2777.4240116923    -6.833E-08 5.298E-06 1.151E-04
 ETOT 16  -2777.4240117092    -1.682E-08 5.656E-06 2.928E-05
 ETOT 17  -2777.4240117125    -3.307E-09 4.874E-06 9.027E-06
 ETOT 18  -2777.4240117140    -1.534E-09 4.429E-06 3.225E-06
 ETOT 19  -2777.4240117143    -3.261E-10 3.822E-06 8.678E-07
 ETOT 20  -2777.4240117145    -1.410E-10 3.372E-06 1.533E-07
 ETOT 21  -2777.4240117145    -1.228E-11 2.879E-06 7.932E-08
 ETOT 22  -2777.4240117145    -1.955E-11 2.743E-06 1.705E-08
 ETOT 23  -2777.4240117145     7.731E-12 2.342E-06 3.739E-09
 ETOT 24  -2777.4240117145    -1.364E-12 2.410E-06 2.461E-09
 ETOT 25  -2777.4240117145     0.000E+00 2.314E-06 4.661E-10
 ETOT 26  -2777.4240117145    -6.366E-12 2.233E-06 2.237E-10
 ETOT 27  -2777.4240117145     3.638E-12 1.867E-06 5.568E-11
 ETOT 28  -2777.4240117145    -9.095E-13 2.045E-06 1.636E-11
 ETOT 29  -2777.4240117145     2.728E-12 1.452E-06 6.264E-12
 ETOT 30  -2777.4240117145    -1.819E-12 2.655E-06 3.115E-12
 ETOT 31  -2777.4240117145     1.819E-12 1.829E-06 6.592E-13
 ETOT 32  -2777.4240117145     2.728E-12 1.465E-06 5.889E-13
 ETOT 33  -2777.4240117145     4.547E-13 2.101E-06 7.084E-14
 ETOT 34  -2777.4240117145    -5.912E-12 1.634E-06 2.883E-14
 ETOT 35  -2777.4240117145     2.274E-12 1.669E-06 1.835E-14
 ETOT 36  -2777.4240117145    -1.819E-12 1.849E-06 3.254E-15
 ETOT 37  -2777.4240117145     9.095E-13 1.367E-06 2.099E-15
 ETOT 38  -2777.4240117145    -2.728E-12 1.343E-06 7.486E-16
 ETOT 39  -2777.4240117145    -1.364E-12 1.187E-06 2.845E-16
 ETOT 40  -2777.4240117145     9.095E-13 1.272E-06 7.710E-17
 ETOT 41  -2777.4240117145     1.819E-12 1.314E-06 5.806E-17
 ETOT 42  -2777.4240117145     4.547E-13 1.176E-06 9.762E-18
 ETOT 43  -2777.4240117145    -9.095E-13 1.155E-06 8.015E-18
 ETOT 44  -2777.4240117145    -9.095E-13 1.071E-06 1.337E-18
 ETOT 45  -2777.4240117145     1.364E-12 1.019E-06 4.368E-19
 ETOT 46  -2777.4240117145    -1.364E-12 1.751E-07 2.258E-19
 ETOT 47  -2777.4240117145     0.000E+00 1.073E-07 3.753E-20
 ETOT 48  -2777.4240117145     1.364E-12 8.014E-08 1.837E-20
 ETOT 49  -2777.4240117145    -4.547E-13 8.102E-08 1.015E-20
 ETOT 50  -2777.4240117145    -4.547E-13 9.280E-08 3.841E-21
 
 At SCF step   50       vres2   =  3.84E-21 < tolvrs=  1.00E-20 =>converged.
 
 Cartesian components of stress tensor (hartree/bohr^3)
  sigma(1 1)= -1.57398174E-11  sigma(3 2)= -1.54192759E-11
  sigma(2 2)=  1.86046907E-11  sigma(3 1)=  1.69946084E-05
  sigma(3 3)= -1.35727818E-11  sigma(2 1)=  1.40719801E-12
 

--- !ResultsGS
iteration_state: {dtset: 1, itime: 1, icycle: 1, }
comment   : Summary of ground state results
lattice_vectors:
- [ 26.7879248,  -0.4656818,   0.7814696, ]
- [ -0.4554781,  27.3902068,  -0.1130059, ]
- [  0.3892428,  -0.0459795,  13.6112782, ]
lattice_lengths: [  26.80337,   27.39423,   13.61692, ]
lattice_angles: [ 90.457,  86.688,  91.955, ] # degrees, (23, 13, 12)
lattice_volume:   9.9756386E+03
convergence: {deltae: -4.547E-13, res2:  3.841E-21, residm:  9.280E-08, diffor: null, }
etotal    :  -2.77742401E+03
entropy   :   0.00000000E+00
fermie    :   1.11598692E-01
cartesian_stress_tensor: # hartree/bohr^3
- [ -1.57398174E-11,   1.40719801E-12,   1.69946084E-05, ]
- [  1.40719801E-12,   1.86046907E-11,  -1.54192759E-11, ]
- [  1.69946084E-05,  -1.54192759E-11,  -1.35727818E-11, ]
pressure_GPa:   1.0501E-07
xred      :
- [  4.2725E-01,   4.3513E-01,   8.3835E-01, La]
- [  1.5006E-01,   2.9715E-01,   1.1993E-01, La]
- [  1.0484E-01,   1.7318E-01,   6.1579E-01, La]
- [  3.1781E-01,   6.1298E-02,   3.2090E-01, La]
- [  9.1325E-01,   4.2639E-01,   8.8128E-01, La]
- [  6.8767E-01,   3.3292E-01,   1.6572E-01, La]
- [  5.7044E-01,   2.0120E-01,   7.0497E-01, La]
- [  8.1861E-01,   7.0726E-02,   3.7857E-01, La]
- [  4.3486E-01,   9.4013E-01,   8.4403E-01, La]
- [  1.9778E-01,   8.2731E-01,   1.5541E-01, La]
- [  1.0197E-01,   6.7417E-01,   6.4409E-01, La]
- [  3.3455E-01,   5.7223E-01,   3.4155E-01, La]
- [  9.0603E-01,   9.3360E-01,   8.6676E-01, La]
- [  6.6406E-01,   8.1543E-01,   2.0540E-01, La]
- [  5.5916E-01,   6.8186E-01,   6.5976E-01, La]
- [  8.0803E-01,   5.6699E-01,   3.3205E-01, La]
- [  8.7709E-02,   6.5558E-02,   1.5945E-01, Mo]
- [  3.2802E-01,   1.7360E-01,   7.8123E-01, Mo]
- [  3.9754E-01,   3.2886E-01,   3.1762E-01, Mo]
- [  1.6493E-01,   4.0305E-01,   6.4908E-01, Mo]
- [  5.9830E-01,   9.6911E-02,   1.6668E-01, Mo]
- [  8.3439E-01,   1.5531E-01,   8.1939E-01, Mo]
- [  9.2043E-01,   3.2786E-01,   3.3133E-01, Mo]
- [  6.6814E-01,   4.2599E-01,   7.0335E-01, Mo]
- [  9.2537E-02,   5.6450E-01,   1.6684E-01, Mo]
- [  3.2090E-01,   6.6649E-01,   8.2073E-01, Mo]
- [  4.2881E-01,   8.4800E-01,   3.0356E-01, Mo]
- [  1.4009E-01,   9.0261E-01,   7.0771E-01, Mo]
- [  5.7386E-01,   5.8783E-01,   1.9594E-01, Mo]
- [  8.4019E-01,   6.6807E-01,   8.1018E-01, Mo]
- [  9.1169E-01,   8.2644E-01,   3.3063E-01, Mo]
- [  6.7583E-01,   9.3040E-01,   7.2168E-01, Mo]
- [  6.8983E-02,   3.4300E-01,   7.7824E-01,  O]
- [  1.6959E-01,   1.5296E-01,   2.9179E-01,  O]
- [  3.3098E-01,   3.5492E-01,   1.2269E-01,  O]
- [  4.3236E-01,   9.7318E-02,   7.0837E-01,  O]
- [  5.8113E-01,   3.5118E-01,   8.6220E-01,  O]
- [  6.0807E-01,   1.5546E-01,   3.8054E-01,  O]
- [  8.3486E-01,   4.1329E-01,   2.1164E-01,  O]
- [  9.3435E-01,   1.3277E-01,   6.6870E-01,  O]
- [  5.5906E-02,   8.2103E-01,   8.0962E-01,  O]
- [  1.5535E-01,   6.5869E-01,   2.7596E-01,  O]
- [  3.4728E-01,   9.1724E-01,   1.4296E-01,  O]
- [  4.1267E-01,   5.8890E-01,   7.1260E-01,  O]
- [  5.7427E-01,   8.4948E-01,   7.4498E-01,  O]
- [  6.5894E-01,   6.5949E-01,   3.5214E-01,  O]
- [  8.6656E-01,   9.2187E-01,   2.0988E-01,  O]
- [  9.2582E-01,   6.4374E-01,   6.2554E-01,  O]
- [  8.3497E-02,   1.5464E-01,   9.8203E-01,  O]
- [  9.8684E-01,   6.9216E-02,   3.1393E-01,  O]
- [  1.7631E-01,   9.8329E-01,   2.4440E-01,  O]
- [  3.9307E-01,   4.2280E-01,   4.8033E-01,  O]
- [  3.6582E-01,   2.1977E-01,   4.1410E-01,  O]
- [  5.1509E-01,   3.1849E-01,   2.3618E-01,  O]
- [  3.1161E-01,   1.3368E-01,   1.0133E-02,  O]
- [  4.1770E-01,   2.7067E-01,   7.6780E-01,  O]
- [  2.5415E-01,   9.8356E-02,   6.3009E-01,  O]
- [  2.5672E-01,   4.4318E-01,   7.8606E-01,  O]
- [  2.0238E-01,   3.3745E-01,   4.4987E-01,  O]
- [  1.1657E-01,   5.0443E-01,   5.6646E-01,  O]
- [  3.9741E-04,   3.7050E-01,   1.2604E-01,  O]
- [  9.0997E-01,   3.8689E-01,   5.4558E-01,  O]
- [  8.2993E-01,   2.3651E-01,   3.1285E-01,  O]
- [  4.7972E-01,   6.6409E-02,   1.2673E-01,  O]
- [  6.4975E-01,   1.8165E-01,   1.0059E+00,  O]
- [  6.7230E-01,   1.0037E+00,   1.8790E-01,  O]
- [  7.5014E-01,   3.9624E-01,   8.8326E-01,  O]
- [  6.5723E-01,   3.4612E-01,   5.1426E-01,  O]
- [  5.7858E-01,   5.1263E-01,   7.1153E-01,  O]
- [  8.3614E-01,   8.0315E-02,   1.8705E-02,  O]
- [  8.6125E-01,   2.6335E-01,   9.1780E-01,  O]
- [  7.4137E-01,   1.7471E-01,   6.6550E-01,  O]
- [  3.1400E-01,   5.9925E-01,   2.8015E-02,  O]
- [  3.9886E-01,   7.6563E-01,   8.1950E-01,  O]
- [  2.5863E-01,   6.3885E-01,   6.0051E-01,  O]
- [  1.6708E-01,   4.7054E-01,   1.8391E-01,  O]
- [  6.2500E-02,   5.7722E-01,   9.3050E-01,  O]
- [  9.8281E-01,   5.5363E-01,   2.9083E-01,  O]
- [  4.0081E-01,   9.3110E-01,   4.8675E-01,  O]
- [  3.4611E-01,   7.5189E-01,   2.9016E-01,  O]
- [  5.1774E-01,   8.7364E-01,   1.0904E-01,  O]
- [  8.0636E-02,   2.3950E-04,   6.3570E-01,  O]
- [  2.4067E-01,   9.2041E-01,   8.4233E-01,  O]
- [  1.7641E-01,   8.3419E-01,   5.1009E-01,  O]
- [  6.6040E-01,   4.9777E-01,   2.0028E-01,  O]
- [  4.8760E-01,   6.1814E-01,   3.8603E-01,  O]
- [  5.8898E-01,   6.7387E-01,   1.0187E+00,  O]
- [  8.3686E-01,   5.7752E-01,  -2.0752E-02,  O]
- [  8.7936E-01,   7.6624E-01,   9.3028E-01,  O]
- [  7.3129E-01,   6.9329E-01,   7.2195E-01,  O]
- [  6.0392E-01,   2.7554E-02,   7.8592E-01,  O]
- [  7.3637E-01,   8.7952E-01,   9.0912E-01,  O]
- [  7.0254E-01,   9.0250E-01,   4.7865E-01,  O]
- [  2.5586E-02,   7.9798E-01,   2.4779E-01,  O]
- [  9.1549E-01,   8.5665E-01,   5.6505E-01,  O]
- [  8.2798E-01,   7.3477E-01,   3.0345E-01,  O]
- [  5.6373E-02,  -2.7087E-02,  -1.1948E-03,  O]
- [  2.2818E-01,   2.5628E-01,   7.8842E-01,  O]
- [  1.0220E+00,   2.6094E-01,   3.8159E-01,  O]
- [  7.6261E-01,   5.0829E-01,   6.2090E-01,  O]
- [  2.0602E-01,   7.2349E-01,   8.8681E-01,  O]
- [  5.2552E-01,   7.9510E-01,   4.1606E-01,  O]
- [  4.7716E-01,   5.1345E-01,   1.1343E-01,  O]
- [  7.9611E-01,   1.0096E+00,   6.8501E-01,  O]
cartesian_forces: # hartree/bohr
- [ -1.05814978E-09,  -6.91866109E-09,   2.52343187E-09, ]
- [  7.40255719E-09,   5.45980073E-09,  -8.60169323E-10, ]
- [ -1.01105023E-09,   5.02178066E-09,   4.87464152E-09, ]
- [ -6.39691162E-12,  -1.49379087E-10,   6.32087057E-09, ]
- [  2.57282260E-09,  -4.45433799E-09,  -2.98790700E-09, ]
- [  3.48388307E-09,   6.13366796E-09,  -2.69906853E-09, ]
- [ -2.28714740E-09,   5.18791559E-09,   3.42544125E-09, ]
- [ -1.50543419E-09,   1.59714142E-10,  -3.11292528E-09, ]
- [  3.17312689E-09,   1.73674694E-09,   1.77663965E-09, ]
- [ -5.50044214E-09,   5.45943887E-09,   6.79007714E-10, ]
- [ -7.31793145E-09,   1.99827242E-09,  -2.95484418E-09, ]
- [  5.31066741E-10,  -9.07342936E-10,  -7.27772519E-09, ]
- [ -6.27467809E-10,  -2.34013672E-09,  -3.59528534E-09, ]
- [  1.29441723E-08,  -1.69234142E-09,  -5.69836097E-09, ]
- [  7.94057974E-09,   1.17826894E-09,   3.54169767E-09, ]
- [  5.05485185E-10,   1.97675159E-09,  -1.07537527E-08, ]
- [  6.81997683E-10,  -7.57167262E-09,   4.08136938E-09, ]
- [ -1.77753393E-08,   9.29350145E-09,   5.12297000E-09, ]
- [  2.80677413E-09,  -3.44892167E-10,  -1.35354119E-09, ]
- [ -3.06557360E-09,  -3.17109619E-09,  -5.50632427E-09, ]
- [ -4.65814776E-09,  -6.09412583E-09,   4.92624244E-10, ]
- [  1.20606463E-08,   1.09802306E-10,  -5.11912756E-09, ]
- [ -5.07871629E-09,   2.75798387E-09,   5.35757011E-09, ]
- [ -8.24453791E-09,  -3.56176479E-09,   1.62975971E-09, ]
- [ -2.28240032E-09,   3.32715324E-09,   3.59795836E-09, ]
- [  1.11794942E-08,  -6.65337850E-09,  -2.79737011E-09, ]
- [ -5.77769072E-10,   3.51111918E-09,   2.35505370E-10, ]
- [  5.05736088E-09,  -1.71381986E-09,  -6.11038185E-09, ]
- [  8.62311728E-09,   3.73378864E-09,   1.30837503E-08, ]
- [  6.11850456E-09,   7.05115281E-10,  -6.44305166E-09, ]
- [  3.95796437E-09,  -1.93025289E-09,  -3.10673086E-09, ]
- [  9.19607639E-09,   1.16341386E-09,   2.91079802E-10, ]
- [  1.55762212E-08,   1.03029199E-08,  -4.63995745E-09, ]
- [ -1.62170109E-09,   3.74328741E-09,   1.03470007E-09, ]
- [  6.09129538E-10,   3.81083379E-09,  -6.27675165E-09, ]
- [  1.19914479E-08,  -9.77643668E-09,   6.75641285E-09, ]
- [  3.89776974E-09,   1.06575298E-08,  -3.28218494E-09, ]
- [ -3.24552901E-09,  -5.79261829E-09,  -3.83047621E-09, ]
- [ -2.15753397E-08,  -7.70019085E-09,  -7.45931525E-09, ]
- [  1.24982715E-08,  -6.37217670E-10,  -8.28382319E-09, ]
- [ -1.02354291E-08,   4.29983808E-09,   3.27943010E-09, ]
- [ -6.21261282E-10,  -5.73145563E-10,   5.75951126E-09, ]
- [ -3.52289057E-09,  -3.12586330E-09,   1.06350028E-08, ]
- [  8.95143649E-10,   5.06627786E-09,   1.18533914E-08, ]
- [ -1.03293073E-08,   3.11237064E-09,   5.10007507E-09, ]
- [ -1.05963785E-08,  -6.46373966E-09,  -1.48314825E-08, ]
- [ -7.67593116E-09,  -1.21177644E-09,  -4.11763441E-09, ]
- [  1.40980400E-09,   3.64134303E-09,  -1.37264518E-08, ]
- [ -9.05313328E-09,   4.27623279E-09,  -1.04191272E-08, ]
- [  2.71231262E-09,   1.01474316E-08,   4.83000602E-09, ]
- [  1.43523092E-08,   3.29338773E-10,   9.36575165E-09, ]
- [ -8.47383654E-09,  -2.56211665E-09,  -1.05036846E-09, ]
- [  2.78328742E-09,  -1.67917225E-09,   7.59825574E-09, ]
- [ -3.69427097E-09,  -1.01510678E-09,  -7.78878733E-09, ]
- [ -3.66019584E-09,  -1.10051521E-09,   3.73224539E-09, ]
- [ -6.22355171E-10,   2.02237386E-09,  -3.94004920E-09, ]
- [ -1.85987643E-09,  -3.69606072E-09,   1.55755512E-09, ]
- [ -1.29555115E-08,  -1.04750517E-09,  -2.37317195E-08, ]
- [  8.03862594E-10,   8.49156089E-09,   1.41037827E-08, ]
- [  9.25201060E-09,  -1.34217305E-08,   5.75927813E-09, ]
- [ -3.46446895E-09,  -6.69107573E-09,   1.76998650E-09, ]
- [ -6.29709606E-09,   2.66197307E-09,   4.45134912E-09, ]
- [ -9.90435149E-09,   4.86442410E-09,  -5.65070182E-09, ]
- [ -3.47184360E-09,  -6.85368313E-09,  -4.60759301E-09, ]
- [  6.96190720E-10,  -3.28082861E-10,  -1.56388903E-09, ]
- [  1.85492455E-09,  -2.90128209E-09,   1.57611132E-08, ]
- [ -7.69005010E-10,   7.86877758E-09,  -1.38910470E-09, ]
- [  5.91264894E-09,  -6.66039652E-10,   2.35713702E-09, ]
- [  5.97991036E-09,   4.80146859E-09,   1.90702039E-09, ]
- [ -8.97303887E-11,   1.59666331E-09,   7.17778127E-09, ]
- [ -5.00922848E-09,  -5.18132014E-10,  -1.15047639E-09, ]
- [  2.32324986E-10,  -6.37929242E-09,   1.84836389E-09, ]
- [ -7.08164409E-09,  -2.05756897E-09,   4.90720541E-09, ]
- [ -6.00901929E-09,   3.83455406E-09,  -3.66292101E-09, ]
- [  6.44043027E-09,   3.26519142E-09,   7.15127125E-09, ]
- [ -1.45873865E-09,  -3.00373135E-09,  -4.72851258E-09, ]
- [  3.62047855E-09,  -4.98355569E-09,   1.10832385E-09, ]
- [ -6.40050072E-09,   3.78741448E-09,   1.88335820E-09, ]
- [ -2.48946322E-09,   1.14183951E-09,   6.39252038E-10, ]
- [ -6.29591798E-09,   3.00500486E-09,   1.30720329E-09, ]
- [  1.04041299E-08,   2.56797771E-09,   1.38502911E-09, ]
- [ -3.08238756E-09,   1.39414294E-08,  -6.44703723E-09, ]
- [  3.63636452E-09,   2.50277009E-09,   8.26601326E-09, ]
- [  8.89130234E-09,  -3.02609494E-09,  -1.03900327E-08, ]
- [ -1.90396665E-08,   2.09103674E-08,  -1.07801411E-08, ]
- [  1.93680015E-08,  -7.66767572E-09,  -3.13069844E-08, ]
- [ -3.80774870E-09,  -1.28980766E-08,   3.22418548E-08, ]
- [  1.26631038E-09,  -3.55771043E-09,  -2.19913539E-09, ]
- [ -1.28847222E-09,   1.59264958E-09,  -8.81035479E-10, ]
- [ -7.34634973E-10,  -7.80977106E-09,   4.02141297E-09, ]
- [  2.56901093E-09,  -1.77206967E-09,   8.49447837E-09, ]
- [  8.69717620E-09,  -1.11374395E-08,   2.07249298E-08, ]
- [  1.93518835E-09,  -9.65489028E-09,  -1.36447819E-08, ]
- [  6.11682108E-09,  -4.27932058E-10,   4.17932175E-09, ]
- [ -6.87008680E-09,  -3.42917087E-09,  -3.72448922E-09, ]
- [  4.71784917E-09,  -4.47451173E-09,  -5.64683256E-09, ]
- [ -2.55874773E-09,  -8.95974582E-09,   2.31664478E-09, ]
- [  4.90265165E-09,  -1.39420841E-08,   1.94990498E-09, ]
- [  3.47232575E-09,   5.34903651E-09,   1.74193288E-09, ]
- [ -1.80667260E-08,   1.75839321E-10,   9.68234759E-09, ]
- [ -5.52973631E-09,   5.99265222E-09,   4.82437495E-09, ]
- [ -3.82099096E-10,  -7.75942889E-10,  -5.90388393E-09, ]
- [  1.49804651E-08,   2.43724267E-08,   6.95580577E-11, ]
- [  1.29060800E-10,  -1.18260766E-08,  -3.13463671E-09, ]
force_length_stats: {min:   1.74300568E-09, max:   3.76037233E-08, mean:   1.07508693E-08, }
...

 Integrated electronic density in atomic spheres:
 ------------------------------------------------
 Atom  Sphere_radius  Integrated_density
    1        2.51647          7.86643050
    2        2.51647          7.84606920
    3        2.51647          7.86722576
    4        2.51647          7.90509266
    5        2.51647          7.87389824
    6        2.51647          7.89031513
    7        2.51647          7.88657514
    8        2.51647          7.83618385
    9        2.51647          7.81983268
   10        2.51647          7.85873931
   11        2.51647          7.87921468
   12        2.51647          7.90141006
   13        2.51647          7.88785779
   14        2.51647          7.86993676
   15        2.51647          7.85612351
   16        2.51647          7.89181947
   17        2.20000         11.39035323
   18        2.20000         11.35913018
   19        2.20000         11.55305007
   20        2.20000         11.54358737
   21        2.20000         11.58692012
   22        2.20000         11.48912784
   23        2.20000         11.38874443
   24        2.20000         11.40086426
   25        2.20000         11.54948874
   26        2.20000         11.41680460
   27        2.20000         11.38905565
   28        2.20000         11.54331254
   29        2.20000         11.40928798
   30        2.20000         11.55144648
   31        2.20000         11.60220391
   32        2.20000         11.39340539
   33        1.41465          4.53932121
   34        1.41465          4.55494670
   35        1.41465          4.54026781
   36        1.41465          4.55740706
   37        1.41465          4.54040209
   38        1.41465          4.54470200
   39        1.41465          4.55640687
   40        1.41465          4.55438903
   41        1.41465          4.55282930
   42        1.41465          4.55053176
   43        1.41465          4.56806083
   44        1.41465          4.56381411
   45        1.41465          4.55555140
   46        1.41465          4.54860318
   47        1.41465          4.57235391
   48        1.41465          4.54329708
   49        1.41465          4.54383880
   50        1.41465          4.55743014
   51        1.41465          4.56702131
   52        1.41465          4.54139745
   53        1.41465          4.55242098
   54        1.41465          4.56607045
   55        1.41465          4.54383631
   56        1.41465          4.56628551
   57        1.41465          4.54956570
   58        1.41465          4.54651067
   59        1.41465          4.53913744
   60        1.41465          4.53659408
   61        1.41465          4.56901916
   62        1.41465          4.54970992
   63        1.41465          4.52934827
   64        1.41465          4.53774498
   65        1.41465          4.54814725
   66        1.41465          4.54445674
   67        1.41465          4.58403929
   68        1.41465          4.55289934
   69        1.41465          4.55352556
   70        1.41465          4.54054003
   71        1.41465          4.56951711
   72        1.41465          4.55458058
   73        1.41465          4.56522249
   74        1.41465          4.54490287
   75        1.41465          4.58877939
   76        1.41465          4.54397339
   77        1.41465          4.55597476
   78        1.41465          4.54596258
   79        1.41465          4.54539588
   80        1.41465          4.53658186
   81        1.41465          4.55615017
   82        1.41465          4.54470151
   83        1.41465          4.52583509
   84        1.41465          4.54753394
   85        1.41465          4.55094272
   86        1.41465          4.59610726
   87        1.41465          4.54448107
   88        1.41465          4.54634262
   89        1.41465          4.54600569
   90        1.41465          4.54390510
   91        1.41465          4.53154847
   92        1.41465          4.56385939
   93        1.41465          4.53987250
   94        1.41465          4.56290147
   95        1.41465          4.55453997
   96        1.41465          4.57106740
   97        1.41465          4.57392291
   98        1.41465          4.55696419
   99        1.41465          4.54679780
  100        1.41465          4.55083712
  101        1.41465          4.55137684
  102        1.41465          4.55087768
  103        1.41465          4.56418548
  104        1.41465          4.55991502
 
 PAW TEST:
 ==== Compensation charge inside spheres ============
 The following values must be close to each other ...
 Compensation charge over spherical meshes =     84.132405079754449
 Compensation charge over fft grid         =     84.132524989940549
 
 ==== Results concerning PAW augmentation regions ====
 
 Total pseudopotential strength Dij (hartree):
 Atom #  1
   0.47287  -0.11718  -0.00032  -0.00001  -0.00032  -0.00002  -0.00001  -0.00001  -0.00002   0.00006   0.00002  -0.00000 ...
  -0.11718   0.02308   0.00006   0.00000   0.00006  -0.00002   0.00001  -0.00002   0.00000  -0.00001   0.00001  -0.00001 ...
  -0.00032   0.00006  -0.18083   0.00006  -0.00002   0.04248   0.00007  -0.00006  -0.00009  -0.00000   0.00005   0.00002 ...
  -0.00001   0.00000   0.00006  -0.18088   0.00002   0.00007   0.04290  -0.00012   0.00002  -0.00008   0.00003  -0.00008 ...
  -0.00032   0.00006  -0.00002   0.00002  -0.18086  -0.00006  -0.00012   0.04268  -0.00009   0.00002   0.00007  -0.00001 ...
  -0.00002  -0.00002   0.04248   0.00007  -0.00006   0.31995   0.00002  -0.00002  -0.00003   0.00002  -0.00001   0.00001 ...
  -0.00001   0.00001   0.00007   0.04290  -0.00012   0.00002   0.32005  -0.00004   0.00001  -0.00006  -0.00000  -0.00001 ...
  -0.00001  -0.00002  -0.00006  -0.00012   0.04268  -0.00002  -0.00004   0.31999  -0.00002   0.00001   0.00003  -0.00001 ...
  -0.00002   0.00000  -0.00009   0.00002  -0.00009  -0.00003   0.00001  -0.00002  -0.05771  -0.00001   0.00001   0.00002 ...
   0.00006  -0.00001  -0.00000  -0.00008   0.00002   0.00002  -0.00006   0.00001  -0.00001  -0.05769   0.00001  -0.00001 ...
   0.00002   0.00001   0.00005   0.00003   0.00007  -0.00001  -0.00000   0.00003   0.00001   0.00001  -0.05767  -0.00001 ...
  -0.00000  -0.00001   0.00002  -0.00008  -0.00001   0.00001  -0.00001  -0.00001   0.00002  -0.00001  -0.00001  -0.05767 ...
   ...  only 12  components have been written...
 Atom #104
   0.61580  -1.76581   0.00019  -0.00009   0.00026  -0.00134   0.00072  -0.00191
  -1.76581   5.12158  -0.00047   0.00025  -0.00068   0.00354  -0.00199   0.00509
   0.00019  -0.00047  -0.30867   0.00018  -0.00029   0.96019  -0.00090   0.00153
  -0.00009   0.00025   0.00018  -0.30845  -0.00010  -0.00090   0.95891   0.00055
   0.00026  -0.00068  -0.00029  -0.00010  -0.30869   0.00153   0.00055   0.96020
  -0.00134   0.00354   0.96019  -0.00090   0.00153  -0.23160   0.00447  -0.00765
   0.00072  -0.00199  -0.00090   0.95891   0.00055   0.00447  -0.22471  -0.00285
  -0.00191   0.00509   0.00153   0.00055   0.96020  -0.00765  -0.00285  -0.23128
 
 
 Augmentation waves occupancies Rhoij:
 Atom #  1
   2.02528  -0.08160   0.00242  -0.00092   0.00157  -0.00135   0.00055  -0.00115  -0.00446   0.00095   0.01152  -0.00994 ...
  -0.08160   0.25147  -0.01131   0.00369  -0.00925   0.00353  -0.00046   0.00354   0.00818   0.00221  -0.01998   0.01922 ...
   0.00242  -0.01131   2.05767  -0.00174   0.00420  -0.02901   0.00071  -0.00224  -0.01929   0.02896  -0.01960  -0.01015 ...
  -0.00092   0.00369  -0.00174   2.04124   0.00636   0.00071  -0.01836  -0.00401  -0.00642  -0.03253  -0.02336  -0.00549 ...
   0.00157  -0.00925   0.00420   0.00636   2.04969  -0.00224  -0.00402  -0.02351  -0.00397  -0.01095   0.00266   0.01096 ...
  -0.00135   0.00353  -0.02901   0.00071  -0.00224   0.01789   0.00002   0.00079   0.00579  -0.00945   0.00658   0.00353 ...
   0.00055  -0.00046   0.00071  -0.01836  -0.00402   0.00002   0.01355   0.00147   0.00219   0.00936   0.00817   0.00217 ...
  -0.00115   0.00354  -0.00224  -0.00401  -0.02351   0.00079   0.00147   0.01541   0.00039   0.00386  -0.00007  -0.00374 ...
  -0.00446   0.00818  -0.01929  -0.00642  -0.00397   0.00579   0.00219   0.00039   0.09560   0.00878   0.01464  -0.01549 ...
   0.00095   0.00221   0.02896  -0.03253  -0.01095  -0.00945   0.00936   0.00386   0.00878   0.10166   0.01685   0.02078 ...
   0.01152  -0.01998  -0.01960  -0.02336   0.00266   0.00658   0.00817  -0.00007   0.01464   0.01685   0.10458   0.00637 ...
  -0.00994   0.01922  -0.01015  -0.00549   0.01096   0.00353   0.00217  -0.00374  -0.01549   0.02078   0.00637   0.07836 ...
   ...  only 12  components have been written...
 Atom #104
   1.99039   0.03146  -0.00353  -0.00612  -0.00103  -0.00116   0.00013  -0.00146
   0.03146   0.00121  -0.00273   0.00140  -0.00393  -0.00009   0.00003  -0.00014
  -0.00353  -0.00273   1.73199  -0.01017   0.01558   0.03217  -0.00128   0.00318
  -0.00612   0.00140  -0.01017   1.77339  -0.00749  -0.00127   0.03088   0.00044
  -0.00103  -0.00393   0.01558  -0.00749   1.77357   0.00316   0.00044   0.03353
  -0.00116  -0.00009   0.03217  -0.00127   0.00316   0.00079  -0.00007   0.00015
   0.00013   0.00003  -0.00128   0.03088   0.00044  -0.00007   0.00072   0.00004
  -0.00146  -0.00014   0.00318   0.00044   0.03353   0.00015   0.00004   0.00082
 
 
 
---OUTPUT-----------------------------------------------------------------------
 
 Cartesian coordinates (xcart) [bohr]
  1.15733046323769E+01  1.16806698222451E+01  1.16957160971710E+01
  3.93110379527008E+00  8.06352893183927E+00  1.71606568861166E+00
  2.96923654652934E+00  4.66641075221931E+00  8.44403794804794E+00
  8.61037955385374E+00  1.51621380520917E+00  4.60933508078061E+00
  2.46127830735807E+01  1.12131309817637E+01  1.26607700485145E+01
  1.83340112347806E+01  8.79088005875119E+00  2.75549635522697E+00
  1.54636412342759E+01  5.21288847255271E+00  1.00185332282636E+01
  2.20440900536805E+01  1.53857980705137E+00  5.78449386078050E+00
  1.15492931185893E+01  2.55090995791217E+01  1.17219682693336E+01
  4.98168197921472E+00  2.25609598717733E+01  2.17640252197636E+00
  2.67513490133562E+00  1.83886925712616E+01  8.77038231581475E+00
  8.83408250674675E+00  1.55020318149415E+01  4.84577078501411E+00
  2.41827307218389E+01  2.51098356877176E+01  1.24001922883659E+01
  1.74972297247261E+01  2.20162136817563E+01  3.22253595543905E+00
  1.49250837568672E+01  1.83855857461070E+01  9.34010428816483E+00
  2.15165072718806E+01  1.51383414698182E+01  5.08695818436234E+00
  2.38174630194296E+00  1.74746924172528E+00  2.23149317732394E+00
  9.01208050859427E+00  4.56614100382436E+00  1.08702909384038E+01
  1.06230876079946E+01  8.80776424015036E+00  4.59671982525976E+00
  4.48718798890726E+00  1.09330407904357E+01  8.91813806286952E+00
  1.60478696184160E+01  2.36814293557395E+00  2.72534703327518E+00
  2.25998855737159E+01  3.82769238996108E+00  1.17874301676641E+01
  2.46359510682927E+01  8.53630117297316E+00  5.19207076110162E+00
  1.79778734091554E+01  1.13245934627816E+01  1.00474561834635E+01
  2.28670679674598E+00  1.54110058360199E+01  2.27941212511912E+00
  8.61200546196611E+00  1.80680391656213E+01  1.13466029495866E+01
  1.12187249681593E+01  2.30133676246064E+01  4.37104696305445E+00
  3.61719732160813E+00  2.46247744040834E+01  9.64033644168278E+00
  1.51809912900833E+01  1.58244426485613E+01  3.04905560582218E+00
  2.25180454441822E+01  1.78701311623336E+01  1.16086278975632E+01
  2.41746891059925E+01  2.21965778250188E+01  5.11943331264825E+00
  1.79613453171140E+01  2.51358598641860E+01  1.02460074092915E+01
  1.99460466744123E+00  9.32681024594945E+00  1.06079233918184E+01
  4.58677009222835E+00  4.09717947098283E+00  4.08688047594636E+00
  8.75227122666520E+00  9.56165398331361E+00  1.88845094750169E+00
  1.18134819808541E+01  2.43164516888578E+00  9.96871252808555E+00
  1.57429434579260E+01  9.30864779447037E+00  1.21500907812681E+01
  1.63661539585299E+01  3.95749342745722E+00  5.63719954077879E+00
  2.22582291533322E+01  1.09216590242611E+01  3.48642332895733E+00
  2.52291377632011E+01  3.17076372284320E+00  9.81704859265687E+00
  1.43877253689268E+00  2.24249833716241E+01  1.09708400530691E+01
  3.96882505519849E+00  1.79567558748123E+01  3.80319735882513E+00
  8.94086775045271E+00  2.49551413760791E+01  2.11359495931549E+00
  1.10637202192608E+01  1.59052469732556E+01  9.95533455150689E+00
  1.52865572914935E+01  2.29658471930941E+01  1.04929433455098E+01
  1.74882863967791E+01  1.77404447722834E+01  5.23349467645433E+00
  2.28752507407261E+01  2.48370374192908E+01  3.42974489410022E+00
  2.47511871046337E+01  1.71721509387324E+01  9.16516435549038E+00
  2.54851746107856E+00  4.15149814151578E+00  1.34144389462312E+01
  2.65261260926165E+01  1.42186365959805E+00  5.03641968441069E+00
  4.37013396473428E+00  2.68392253582747E+01  3.35326841150638E+00
  1.05239379673017E+01  1.13755245554785E+01  6.79728023874905E+00
  9.86051443334047E+00  5.83003617517321E+00  5.89752940956376E+00
  1.37451184807352E+01  8.47277773644023E+00  3.58123441056527E+00
  8.29043622052771E+00  3.51603685079321E+00  3.66331543161077E-01
  1.13648810320789E+01  7.18384306864639E+00  1.07465765724981E+01
  7.00870210455742E+00  2.54665753340873E+00  8.76376246038490E+00
  6.98114264073218E+00  1.19829643389471E+01  1.08497607604048E+01
  5.44270604153781E+00  9.12795859392349E+00  6.24326464678746E+00
  3.11352599964885E+00  1.37360531483765E+01  7.74434495113678E+00
 -1.09051997308670E-01  1.01421983266696E+01  1.67395093850389E+00
  2.44124645104115E+01  1.01482246999850E+01  8.09337473400611E+00
  2.22462372523658E+01  6.07708711341107E+00  4.88006497175764E+00
  1.28696878630509E+01  1.58973847468266E+00  2.09234374314654E+00
  1.77143503183409E+01  4.62664696934016E+00  1.41789563240629E+01
  1.76253762875454E+01  2.71703191523346E+01  2.96949406572159E+00
  2.02579751027128E+01  1.04630366009609E+01  1.25636647580904E+01
  1.76484715451966E+01  9.15066505799068E+00  7.47418892964357E+00
  1.55424699433837E+01  1.37388503219284E+01  1.00790066198759E+01
  2.23691544900877E+01  1.80962183534593E+00  8.98934423744494E-01
  2.33083291610380E+01  6.76983618017410E+00  1.31357351194091E+01
  2.00391312959464E+01  4.40957135435599E+00  9.61794756192883E+00
  8.14924819167923E+00  1.62660853944746E+01  5.58982925967216E-01
  1.06547829757594E+01  2.07474215088536E+01  1.13795867897532E+01
  6.87104749465267E+00  1.73501149797456E+01  8.30360720642375E+00
  4.33308961464042E+00  1.28019432861052E+01  2.58058779491873E+00
  1.77351567533982E+00  1.57383375558190E+01  1.26489382873034E+01
  2.61884191623883E+01  1.46930772792534E+01  4.66405810437339E+00
  1.05022608857865E+01  2.52941142886806E+01  6.83332231047134E+00
  9.04193618408343E+00  2.04197991832458E+01  4.13494290865750E+00
  1.35136121940757E+01  2.36829356228789E+01  1.79005133067134E+00
  2.40740834537996E+00 -6.02199319670439E-02  8.71565218378800E+00
  6.35579178979394E+00  2.50592816962162E+01  1.15492369308440E+01
  4.54416147762743E+00  2.27430894901093E+01  6.98654505047712E+00
  1.75418700963135E+01  1.33173265671757E+01  3.18586148014550E+00
  1.29306119485570E+01  1.66862638846378E+01  5.56560108446495E+00
  1.58671580062311E+01  1.81364208482178E+01  1.42494555654814E+01
  2.21466378932393E+01  1.54297195169700E+01  3.06261776830216E-01
  2.35692854196406E+01  2.05350623206443E+01  1.32628655486915E+01
  1.95551082998799E+01  1.86154900544283E+01  1.03198059508977E+01
  1.64711144735608E+01  4.37339772732088E-01  1.11662104612771E+01
  1.96791164018344E+01  2.37056530621845E+01  1.28503844754088E+01
  1.85948846826168E+01  2.43704139529182E+01  6.96204684206353E+00
  4.18379260847766E-01  2.18334941293502E+01  3.30257342445377E+00
  2.43537223588873E+01  2.30114042920579E+01  8.30966560091528E+00
  2.19632084212072E+01  1.97259167142853E+01  4.69437153442511E+00
  1.52199753045949E+00 -7.68113709149689E-01  3.08528747209838E-02
  6.30251020317638E+00  6.87713917077086E+00  1.08807089510408E+01
  2.74075385832402E+01  6.65372286784780E+00  5.96313181221365E+00
  2.04388177760777E+01  1.35383966656220E+01  8.98970579045169E+00
  5.53460025638439E+00  1.96798016828230E+01  1.21498538050444E+01
  1.38775157757086E+01  2.15141452599699E+01  5.98393365449669E+00
  1.25924628080487E+01  1.38359767764218E+01  1.85873033925421E+00
  2.11329625593658E+01  2.72507134106887E+01  9.83189354761107E+00
 Reduced coordinates (xred)
  4.27251214942771E-01  4.35125585202496E-01  8.38349189397402E-01
  1.50058901002075E-01  2.97147185568874E-01  1.19928384905791E-01
  1.04839271333213E-01  1.73184021026957E-01  6.15789343793107E-01
  3.17807003851630E-01  6.12980293576092E-02  3.20903412686601E-01
  9.13245984498981E-01  4.26390849322237E-01  8.81275118263681E-01
  6.87665865692536E-01  3.32919481846331E-01  1.65724941544444E-01
  5.70439150099228E-01  2.01201312079499E-01  7.04966073058662E-01
  8.18613248803088E-01  7.07259841078292E-02  3.78565841674481E-01
  4.34858940025503E-01  9.40132137452993E-01  8.44033863733388E-01
  1.97776099804802E-01  8.27310521603650E-01  1.55410642385488E-01
  1.01967568622385E-01  6.74174971567552E-01  6.44089657777347E-01
  3.34545265309635E-01  5.72231091994149E-01  3.41554941983300E-01
  9.06027189172776E-01  9.33604086890198E-01  8.66756393201818E-01
  6.64056355358836E-01  8.15433666116167E-01  2.05399147975776E-01
  5.59164228835163E-01  6.81860999005146E-01  6.59760872932423E-01
  8.08032383043114E-01  5.66987129652529E-01  3.32046579596987E-01
  8.77089424180046E-02  6.55579300600314E-02  1.59453044125765E-01
  3.28023187039220E-01  1.73595478500340E-01  7.81232149472744E-01
  3.97538965062232E-01  3.28858228769370E-01  3.17620291489520E-01
  1.64929540612516E-01  4.03052443445884E-01  6.49079228792595E-01
  5.98296851051194E-01  9.69113821145260E-02  1.66681467109129E-01
  8.34394010359437E-01  1.55308412035417E-01  8.19388691036284E-01
  9.20426508681189E-01  3.27860300336953E-01  3.31330794385930E-01
  6.68141767085184E-01  4.25994390637708E-01  7.03347876589512E-01
  9.25373413606504E-02  5.64499934057636E-01  1.66838764048067E-01
  3.20895081628427E-01  6.66486780629377E-01  8.20727487347588E-01
  4.28805724965143E-01  8.48004255749489E-01  3.03555460893349E-01
  1.40094570505634E-01  9.02605600651471E-01  7.07711386040896E-01
  5.73857965191751E-01  5.87826418723589E-01  1.95942724210275E-01
  8.40191338001577E-01  6.68072518137974E-01  8.10176673111374E-01
  9.11694986289451E-01  8.26439176822602E-01  3.30634924570756E-01
  6.75834789882701E-01  9.30397002351234E-01  7.21681190153630E-01
  6.89829155956457E-02  3.42995481224754E-01  7.78235203701948E-01
  1.69586190655644E-01  1.52958649014852E-01  2.91790323059594E-01
  3.30976606553442E-01  3.54923380054315E-01  1.22685850473037E-01
  4.32361970089024E-01  9.73179496934277E-02  7.08370821608561E-01
  5.81131001463916E-01  3.51180750604161E-01  8.62199708830742E-01
  6.08066619827733E-01  1.55462711252495E-01  3.80536061466516E-01
  8.34857310762626E-01  4.13292535429936E-01  2.11641567524347E-01
  9.34351010867156E-01  1.32770830543793E-01  6.68701754919277E-01
  5.59056683921186E-02  8.21032260142914E-01  8.09617789497484E-01
  1.55347186355267E-01  6.58694805074405E-01  2.75964873083853E-01
  3.47283539765053E-01  9.17241638168516E-01  1.42959179245352E-01
  4.12670205202452E-01  5.88903363532428E-01  7.12599857760412E-01
  5.74269913674127E-01  8.49483476931964E-01  7.44982608645799E-01
  6.58938696860659E-01  6.59487234031611E-01  3.52140337259860E-01
  8.66563897782064E-01  9.21870752652366E-01  2.09879511782758E-01
  9.25824138029554E-01  6.43735642474878E-01  6.25540583585014E-01
  8.34967113704683E-02  1.54636809142595E-01  9.82028542284081E-01
  9.86842242131536E-01  6.92164420089564E-02  3.13934835866257E-01
  1.76305949099320E-01  9.83291780879921E-01  2.44400885875845E-01
  3.93070795110888E-01  4.22802784527525E-01  4.80328628643564E-01
  3.65815038587017E-01  2.19765769252467E-01  4.14104453935822E-01
  5.15092260107798E-01  3.18489971605527E-01  2.36178901905036E-01
  3.11609870605311E-01  1.33683320756657E-01  1.01331350498061E-02
  4.17699536183766E-01  2.70668316851319E-01  7.67800354390046E-01
  2.54153501430030E-01  9.83557072603680E-02  6.30085131773893E-01
  2.56721367190717E-01  4.43175084328286E-01  7.86055657365777E-01
  2.02378543176717E-01  3.37452259217728E-01  4.49865617767701E-01
  1.16574587036354E-01  5.04427930719738E-01  5.66460304657380E-01
  3.97411902091278E-04  3.70503900229205E-01  1.26035885383234E-01
  9.09974343881484E-01  3.86892603646131E-01  5.45575406759011E-01
  8.29933190486281E-01  2.36506294909997E-01  3.12845274215815E-01
  4.79716398932295E-01  6.64091612299414E-02  1.26730538152955E-01
  6.49753408058447E-01  1.81651658468797E-01  1.00591005016635E+00
  6.72295803550639E-01  1.00371766860041E+00  1.87898692679099E-01
  7.50138398563239E-01  3.96235561486104E-01  8.83255137788827E-01
  6.57234637196932E-01  3.46122706153701E-01  5.14256918404549E-01
  5.78581742329465E-01  5.12628510530940E-01  7.11527052239837E-01
  8.36140013055402E-01  8.03154587029286E-02  1.87045315044489E-02
  8.61247369426763E-01  2.63346073562317E-01  9.17801841008548E-01
  7.41366388390430E-01  1.74712503506901E-01  6.65502219417851E-01
  3.13995539232861E-01  5.99250514140600E-01  2.80152831589479E-02
  3.98856140039450E-01  7.65632831948029E-01  8.19497899291599E-01
  2.58634630191542E-01  6.38847584321204E-01  6.00508309817909E-01
  1.67083738785379E-01  4.70540697388947E-01  1.83905638965808E-01
  6.24996626729865E-02  5.77221873873156E-01  9.30502337937856E-01
  9.82807852012359E-01  5.53633105244172E-01  2.90831429685826E-01
  4.00810955318299E-01  9.31104515544098E-01  4.86752306328517E-01
  3.46105995300376E-01  7.51886100722278E-01  2.90159316228476E-01
  5.17736655424293E-01  8.73635234979116E-01  1.09040591813011E-01
  8.06362021585769E-02  2.39499434805009E-04  6.35698160823257E-01
  2.40673582555273E-01  9.20405200929334E-01  8.42328612120366E-01
  1.76406697867881E-01  8.34192038749024E-01  5.10088553609283E-01
  6.60395969727434E-01  4.97771691746857E-01  2.00277537061744E-01
  4.87604105283363E-01  6.18143628653714E-01  3.86033341073778E-01
  5.88981215938940E-01  6.73873566134955E-01  1.01866526931443E+00
  8.36860806937445E-01  5.77523064944077E-01 -2.07516112325135E-02
  8.79358335016861E-01  7.66235072873906E-01  9.30277280855424E-01
  7.31294822324779E-01  6.93285586932266E-01  7.21950321913080E-01
  6.03919528928438E-01  2.75540191956732E-02  7.85920275397455E-01
  7.36371006910320E-01  8.79524888488106E-01  9.09122881619051E-01
  7.02541982358276E-01  9.02497126600770E-01  4.78648594003800E-01
  2.55857860934509E-02  7.97978723234406E-01  2.47791218721902E-01
  9.15485782374551E-01  8.56645959801455E-01  5.65049606025251E-01
  8.27976141219870E-01  7.34767823847105E-01  3.03451771903801E-01
  5.63733506318155E-02 -2.70869295065683E-02 -1.19475664750827E-03
  2.28175795888514E-01  2.56283112421389E-01  7.88416625275976E-01
  1.02202241408711E+00  2.60940177333966E-01  3.81590921790551E-01
  7.62606733008954E-01  5.08286676614540E-01  6.20896224462148E-01
  2.06023779114302E-01  7.23489178292563E-01  8.86809516917280E-01
  5.25524805967972E-01  7.95101801247350E-01  4.16059618393010E-01
  4.77161867875913E-01  5.13446199704465E-01  1.13425447130868E-01
  7.96111498582270E-01  1.00959238991259E+00  6.85008888339434E-01
 Cartesian forces (fcart) [Ha/bohr]; max,rms= 3.22419E-08 7.29858E-09 (free atoms)
 -1.05814978171103E-09 -6.91866109012910E-09  2.52343187305417E-09
  7.40255719471677E-09  5.45980072918320E-09 -8.60169322730670E-10
 -1.01105022803962E-09  5.02178066202123E-09  4.87464152397497E-09
 -6.39691162250566E-12 -1.49379086994819E-10  6.32087056531651E-09
[...]
                       2.4635950475E+01  8.5363008769E+00  5.1920710229E+00
                       1.7977873667E+01  1.1324593957E+01  1.0047455513E+01
                       2.2867070299E+00  1.5411006481E+01  2.2794116453E+00
                       8.6120053345E+00  1.8068039938E+01  1.1346603367E+01
                       1.1218725736E+01  2.3013368009E+01  4.3710477560E+00
                       3.6171982823E+00  2.4624774946E+01  9.6403365117E+00
                       1.5180991365E+01  1.5824443841E+01  3.0490558276E+00
                       2.2518046441E+01  1.7870131293E+01  1.1608626936E+01
                       2.4174689690E+01  2.2196577792E+01  5.1194332575E+00
                       1.7961346525E+01  2.5135859617E+01  1.0246008153E+01
                       1.9946052967E+00  9.3268111201E+00  1.0607923795E+01
                       4.5867700057E+00  4.0971797837E+00  4.0868807940E+00
                       8.7522708574E+00  9.5616546973E+00  1.8884508787E+00
                       1.1813482586E+01  2.4316451639E+00  9.9687136660E+00
                       1.5742943980E+01  9.3086480764E+00  1.2150090553E+01
                       1.6366152390E+01  3.9574938179E+00  5.6371997731E+00
                       2.2258228576E+01  1.0921658724E+01  3.4864229450E+00
                       2.5229138474E+01  3.1707636845E+00  9.8170486214E+00
                       1.4387722813E+00  2.2424984219E+01  1.0970838768E+01
                       3.9688249150E+00  1.7956756272E+01  3.8031979858E+00
                       8.9408683503E+00  2.4955141726E+01  2.1135958075E+00
                       1.1063720980E+01  1.5905247941E+01  9.9553367284E+00
                       1.5286557991E+01  2.2965847438E+01  1.0492944571E+01
                       1.7488286980E+01  1.7740445179E+01  5.2334948068E+00
                       2.2875251436E+01  2.4837037447E+01  3.4297448648E+00
                       2.4751187510E+01  1.7172151661E+01  9.1651625734E+00
                       2.5485173417E+00  4.1514978211E+00  1.3414439161E+01
                       2.6526126757E+01  1.4218638377E+00  5.0364200785E+00
                       4.3701347796E+00  2.6839225972E+01  3.3532691556E+00
                       1.0523937981E+01  1.1375525113E+01  6.7972800396E+00
                       9.8605151231E+00  5.8300365600E+00  5.8975295743E+00
                       1.3745118008E+01  8.4727790980E+00  3.5812333402E+00
                       8.2904365194E+00  3.5160369305E+00  3.6633224174E-01
                       1.1364881400E+01  7.1838431138E+00  1.0746577023E+01
                       7.0087026924E+00  2.5466577790E+00  8.7637628957E+00
                       6.9811434361E+00  1.1982964884E+01  1.0849759351E+01
                       5.4427061541E+00  9.1279585162E+00  6.2432647213E+00
                       3.1135262862E+00  1.3736053605E+01  7.7443442833E+00
                      -1.0905304958E-01  1.0142196498E+01  1.6739507593E+00
                       2.4412463061E+01  1.0148225132E+01  8.0933746663E+00
                       2.2246237009E+01  6.0770866985E+00  4.8800648440E+00
                       1.2869688289E+01  1.5897377628E+00  2.0923433198E+00
                       1.7714350472E+01  4.6266469460E+00  1.4178956880E+01
                       1.7625377315E+01  2.7170319919E+01  2.9694958496E+00
                       2.0257975545E+01  1.0463037286E+01  1.2563663868E+01
                       1.7648471797E+01  9.1506655461E+00  7.4741882932E+00
                       1.5542469984E+01  1.3738850607E+01  1.0079006823E+01
                       2.2369155234E+01  1.8096214390E+00  8.9893438710E-01
                       2.3308328696E+01  6.7698359180E+00  1.3135734978E+01
                       2.0039131594E+01  4.4095703853E+00  9.6179475647E+00
                       8.1492453151E+00  1.6266086179E+01  5.5898326504E-01
                       1.0654782717E+01  2.0747422426E+01  1.1379587917E+01
                       6.8710481205E+00  1.7350115245E+01  8.3036075077E+00
                       4.3330886168E+00  1.2801943078E+01  2.5805870692E+00
                       1.7735165649E+00  1.5738338374E+01  1.2648937769E+01
                       2.6188419359E+01  1.4693077073E+01  4.6640567365E+00
                       1.0502261746E+01  2.5294114782E+01  6.8333229727E+00
                       9.0419369394E+00  2.0419799443E+01  4.1349432435E+00
                       1.3513613088E+01  2.3682936497E+01  1.7900524922E+00
                       2.4074090696E+00 -6.0219523266E-02  8.7156524700E+00
                       6.3557921408E+00  2.5059282489E+01  1.1549237852E+01
                       4.5441632730E+00  2.2743090519E+01  6.9865451159E+00
                       1.7541869696E+01  1.3317327467E+01  3.1858599316E+00
                       1.2930612652E+01  1.6686263305E+01  5.5656023465E+00
                       1.5867157803E+01  1.8136423001E+01  1.4249456727E+01
                       2.2146639211E+01  1.5429719401E+01  3.0626055943E-01
                       2.3569286981E+01  2.0535062128E+01  1.3262864671E+01
                       1.9555108733E+01  1.8615490527E+01  1.0319806523E+01
                       1.6471115835E+01  4.3733952880E-01  1.1166211181E+01
                       1.9679117663E+01  2.3705653152E+01  1.2850385418E+01
                       1.8594885539E+01  2.4370412597E+01  6.9620477545E+00
                       4.1838021812E-01  2.1833494993E+01  3.3025744579E+00
                       2.4353721357E+01  2.3011403962E+01  8.3096656506E+00
                       2.1963209744E+01  1.9725916244E+01  4.6943698193E+00
                       1.5219979331E+00 -7.6811434363E-01  3.0853624554E-02
                       6.3025105332E+00  6.8771390322E+00  1.0880709856E+01
                       2.7407538306E+01  6.6537235699E+00  5.9631333239E+00
                       2.0438817027E+01  1.3538397896E+01  8.9897049287E+00
                       5.5346000609E+00  1.9679803446E+01  1.2149853083E+01
                       1.3877516222E+01  2.1514145152E+01  5.9839344214E+00
                       1.2592462092E+01  1.3835979560E+01  1.8587293408E+00
                       2.1132963718E+01  2.7250713001E+01  9.8318935358E+00
             xred      4.2725122411E-01  4.3512557967E-01  8.3834918372E-01
                       1.5005888270E-01  2.9714717466E-01  1.1992840625E-01
                       1.0483928090E-01  1.7318402915E-01  6.1578937213E-01
                       3.1780701720E-01  6.1298032540E-02  3.2090345025E-01
                       9.1324598549E-01  4.2639081848E-01  8.8127510915E-01
                       6.8766583696E-01  3.3291949617E-01  1.6572485276E-01
                       5.7043915344E-01  2.0120129876E-01  7.0496610226E-01
                       8.1861326523E-01  7.0725963476E-02  3.7856582425E-01
                       4.3485896018E-01  9.4013213990E-01  8.4403392420E-01
                       1.9777611949E-01  8.2731053463E-01  1.5541064973E-01
                       1.0196757444E-01  6.7417498850E-01  6.4408961674E-01
                       3.3454527236E-01  5.7223111976E-01  3.4155490457E-01
                       9.0602721580E-01  9.3360406350E-01  8.6675637633E-01
                       6.6405636843E-01  8.1543365737E-01  2.0539917413E-01
                       5.5916423819E-01  6.8186100191E-01  6.5976093224E-01
                       8.0803238180E-01  5.6698711476E-01  3.3204648912E-01
                       8.7708950554E-02  6.5557920455E-02  1.5945306574E-01
                       3.2802319243E-01  1.7359547771E-01  7.8123219980E-01
                       3.9753894783E-01  3.2885824094E-01  3.1762027583E-01
                       1.6492954314E-01  4.0305246002E-01  6.4907919244E-01
                       5.9829684585E-01  9.6911372565E-02  1.6668149572E-01
                       8.3439401601E-01  1.5530838312E-01  8.1938867635E-01
                       9.2042647048E-01  3.2786027742E-01  3.3133080772E-01
                       6.6814176422E-01  4.2599439773E-01  7.0334781795E-01
                       9.2537344561E-02  5.6449995089E-01  1.6683872480E-01
                       3.2089506572E-01  6.6648679816E-01  8.2072750927E-01
                       4.2880573947E-01  8.4800425756E-01  3.0355551068E-01
                       1.4009459596E-01  9.0260560968E-01  7.0771138060E-01
                       5.7385795542E-01  5.8782645109E-01  1.9594273483E-01
                       8.4019135827E-01  6.6807250829E-01  8.1017658909E-01
                       9.1169498828E-01  8.2643915917E-01  3.3063491026E-01
                       6.7583481596E-01  9.3039697784E-01  7.2168123121E-01
                       6.8982934312E-02  3.4299550851E-01  7.7823522556E-01
                       1.6958618330E-01  1.5295865701E-01  2.9179034354E-01
                       3.3097658557E-01  3.5492339922E-01  1.2268584290E-01
                       4.3236198397E-01  9.7317944393E-02  7.0837089725E-01
                       5.8113100947E-01  3.5118075149E-01  8.6219968171E-01
                       6.0806655125E-01  1.5546271720E-01  3.8053607650E-01
                       8.3485727437E-01  4.1329251230E-01  2.1164153413E-01
                       9.3435102293E-01  1.3277081930E-01  6.6870174689E-01
                       5.5905651742E-02  8.2103228088E-01  8.0961768706E-01
                       1.5534717247E-01  6.5869481112E-01  2.7596491462E-01
                       3.4728354859E-01  9.1724163880E-01  1.4295923455E-01
                       4.1267022033E-01  5.8890338908E-01  7.1260000788E-01
                       5.7426992260E-01  8.4948347182E-01  7.4498268688E-01
                       6.5893870371E-01  6.5948723634E-01  3.5214033823E-01
                       8.6656390386E-01  9.2187073683E-01  2.0987949976E-01
                       9.2582413670E-01  6.4373565349E-01  6.2554044160E-01
                       8.3496702791E-02  1.5463679387E-01  9.8202855090E-01
                       9.8684225250E-01  6.9216439319E-02  3.1393485722E-01
                       1.7630596781E-01  9.8329179195E-01  2.4440093291E-01
                       3.9307078662E-01  4.2280279653E-01  4.8032860778E-01
                       3.6581505710E-01  2.1976577782E-01  4.1410445966E-01
                       5.1509223445E-01  3.1849001289E-01  2.3617881975E-01
                       3.1160987573E-01  1.3368331984E-01  1.0133183972E-02
                       4.1769954056E-01  2.7066831143E-01  7.6780037902E-01
                       2.5415351805E-01  9.8355712657E-02  6.3008515707E-01
                       2.5672139045E-01  4.4317509684E-01  7.8605554433E-01
                       2.0237854102E-01  3.3745225068E-01  4.4986561794E-01
                       1.1657459203E-01  5.0442794062E-01  5.6646024894E-01
                       3.9736820902E-04  3.7050382880E-01  1.2603587171E-01
                       9.0997427384E-01  3.8689260595E-01  5.4557539631E-01
                       8.2993316774E-01  2.3650626958E-01  3.1284525896E-01
                       4.7971640772E-01  6.6409130455E-02  1.2673050292E-01
                       6.4975340167E-01  1.8165164903E-01  1.0059100808E+00
                       6.7229582246E-01  1.0037176811E+00  1.8789881406E-01
                       7.5013840186E-01  3.9623557501E-01  8.8325506129E-01
                       6.5723463513E-01  3.4612271418E-01  5.1425686388E-01
                       5.7858173067E-01  5.1262850983E-01  7.1152705820E-01
                       8.3614002877E-01  8.0315436593E-02  1.8704523344E-02
                       8.6124733711E-01  2.6334605237E-01  9.1780182108E-01
                       7.4136638668E-01  1.7471245926E-01  6.6550221074E-01
                       3.1399542234E-01  5.9925053208E-01  2.8015310705E-02
                       3.9885611666E-01  7.6563285307E-01  8.1949797308E-01
                       2.5863464359E-01  6.3884758488E-01  6.0050832327E-01
                       1.6708369553E-01  4.7054068257E-01  1.8390558400E-01
                       6.2499689897E-02  5.7722189663E-01  9.3050228958E-01
                       9.8280784235E-01  5.5363308311E-01  2.9083132066E-01
                       4.0081097291E-01  9.3110452053E-01  4.8675234493E-01
                       3.4610601172E-01  7.5188609963E-01  2.9015933312E-01
                       5.1773667340E-01  8.7363525399E-01  1.0904066938E-01
                       8.0636227309E-02  2.3951336482E-04  6.3569817595E-01
                       2.4067358281E-01  9.2040521762E-01  8.4232866927E-01
                       1.7640675519E-01  8.3419206672E-01  5.1008854759E-01
                       6.6039594351E-01  4.9777171308E-01  2.0027741842E-01
                       4.8760411744E-01  6.1814359700E-01  3.8603342536E-01
                       5.8898119338E-01  6.7387363145E-01  1.0186653441E+00
                       8.3686084119E-01  5.7752304826E-01 -2.0751709036E-02
                       8.7935837456E-01  7.6623505007E-01  9.3027720038E-01
                       7.3129482141E-01  6.9328559018E-01  7.2195035289E-01
                       6.0391956962E-01  2.7554004735E-02  7.8592031772E-01
                       7.3637103437E-01  8.7952487613E-01  9.0912293599E-01
                       7.0254199463E-01  9.0249706178E-01  4.7864864948E-01
                       2.5585813611E-02  7.9797874674E-01  2.4779128808E-01
                       9.1548572420E-01  8.5664592969E-01  5.6504960108E-01
                       8.2797617430E-01  7.3476779221E-01  3.0345163471E-01
                       5.6373363977E-02 -2.7086952554E-02 -1.1947026559E-03
                       2.2817580089E-01  2.5628310208E-01  7.8841668400E-01
                       1.0220223862E+00  2.6094019094E-01  3.8159102615E-01
                       7.6260669127E-01  5.0828670838E-01  6.2089615396E-01
                       2.0602376344E-01  7.2348923216E-01  8.8680945532E-01
                       5.2552480724E-01  7.9510178442E-01  4.1605966591E-01
                       4.7716183286E-01  5.1344629124E-01  1.1342537136E-01
                       7.9611152126E-01  1.0095923575E+00  6.8500887332E-01
            znucl       57.00000   42.00000    8.00000
 
================================================================================


- Timing analysis has been suppressed with timopt=0



================================================================================

 Suggested references for the acknowledgment of ABINIT usage.

 The users of ABINIT have little formal obligations with respect to the ABINIT group
 (those specified in the GNU General Public License, http://www.gnu.org/copyleft/gpl.txt).
 However, it is common practice in the scientific literature,
 to acknowledge the efforts of people that have made the research possible.
 In this spirit, please find below suggested citations of work written by ABINIT developers,
 corresponding to implementations inside of ABINIT that you have used in the present run.
 Note also that it will be of great value to readers of publications presenting these results,
 to read papers enabling them to understand the theoretical formalism and details
 of the ABINIT implementation.
 For information on why they are suggested, see also https://docs.abinit.org/theory/acknowledgments.
-
- [1] Implementation of the Projector Augmented-Wave Method in the ABINIT code.
- M. Torrent, F. Jollet, F. Bottin, G. Zerah, and X. Gonze Comput. Mat. Science 42, 337, (2008).
- Comment: PAW calculations. Strong suggestion to cite this paper.
- DOI and bibtex: see https://docs.abinit.org/theory/bibliography/#torrent2008
-
- [2] Libxc: A library of exchange and correlation functionals for density functional theory.
- M.A.L. Marques, M.J.T. Oliveira, T. Burnus, Computer Physics Communications 183, 2227 (2012).
- Comment: to be cited when LibXC is used (negative value of ixc)
- Strong suggestion to cite this paper.
- DOI and bibtex: see https://docs.abinit.org/theory/bibliography/#marques2012
-
- [3] Large scale ab initio calculations based on three levels of parallelization
- F. Bottin, S. Leroux, A. Knyazev, G. Zerah, Comput. Mat. Science 42, 329, (2008).
- Comment: in case LOBPCG algorithm is used (wfoptalg=4/14/114).
- Strong suggestion to cite this paper in your publications.
- This paper is also available at http://www.arxiv.org/abs/0707.3405
- DOI and bibtex: see https://docs.abinit.org/theory/bibliography/#bottin2008
-
- [4] The Abinit project: Impact, environment and recent developments.
- Computer Phys. Comm. 248, 107042 (2020).
- X.Gonze, B. Amadon, G. Antonius, F.Arnardi, L.Baguet, J.-M.Beuken,
- J.Bieder, F.Bottin, J.Bouchet, E.Bousquet, N.Brouwer, F.Bruneval,
- G.Brunin, T.Cavignac, J.-B. Charraud, Wei Chen, M.Cote, S.Cottenier,
- J.Denier, G.Geneste, Ph.Ghosez, M.Giantomassi, Y.Gillet, O.Gingras,
- D.R.Hamann, G.Hautier, Xu He, N.Helbig, N.Holzwarth, Y.Jia, F.Jollet,
- W.Lafargue-Dit-Hauret, K.Lejaeghere, M.A.L.Marques, A.Martin, C.Martins,
- H.P.C. Miranda, F.Naccarato, K. Persson, G.Petretto, V.Planes, Y.Pouillon,
- S.Prokhorenko, F.Ricci, G.-M.Rignanese, A.H.Romero, M.M.Schmitt, M.Torrent,
- M.J.van Setten, B.Van Troeye, M.J.Verstraete, G.Zerah and J.W.Zwanzig
- Comment: the fifth generic paper describing the ABINIT project.
- Note that a version of this paper, that is not formatted for Computer Phys. Comm. 
- is available at https://www.abinit.org/sites/default/files/ABINIT20.pdf .
- The licence allows the authors to put it on the Web.
- DOI and bibtex: see https://docs.abinit.org/theory/bibliography/#gonze2020
-
- [5] ABINIT: Overview, and focus on selected capabilities
- J. Chem. Phys. 152, 124102 (2020).
- A. Romero, D.C. Allan, B. Amadon, G. Antonius, T. Applencourt, L.Baguet,
- J.Bieder, F.Bottin, J.Bouchet, E.Bousquet, F.Bruneval,
- G.Brunin, D.Caliste, M.Cote,
- J.Denier, C. Dreyer, Ph.Ghosez, M.Giantomassi, Y.Gillet, O.Gingras,
- D.R.Hamann, G.Hautier, F.Jollet, G. Jomard,
- A.Martin, 
- H.P.C. Miranda, F.Naccarato, G.Petretto, N.A. Pike, V.Planes,
- S.Prokhorenko, T. Rangel, F.Ricci, G.-M.Rignanese, M.Royo, M.Stengel, M.Torrent,
- M.J.van Setten, B.Van Troeye, M.J.Verstraete, J.Wiktor, J.W.Zwanziger, and X.Gonze.
- Comment: a global overview of ABINIT, with focus on selected capabilities .
- Note that a version of this paper, that is not formatted for J. Chem. Phys 
- is available at https://www.abinit.org/sites/default/files/ABINIT20_JPC.pdf .
- The licence allows the authors to put it on the Web.
- DOI and bibtex: see https://docs.abinit.org/theory/bibliography/#romero2020
-
- [6] Recent developments in the ABINIT software package.
- Computer Phys. Comm. 205, 106 (2016).
- X.Gonze, F.Jollet, F.Abreu Araujo, D.Adams, B.Amadon, T.Applencourt,
- C.Audouze, J.-M.Beuken, J.Bieder, A.Bokhanchuk, E.Bousquet, F.Bruneval
- D.Caliste, M.Cote, F.Dahm, F.Da Pieve, M.Delaveau, M.Di Gennaro,
- B.Dorado, C.Espejo, G.Geneste, L.Genovese, A.Gerossier, M.Giantomassi,
- Y.Gillet, D.R.Hamann, L.He, G.Jomard, J.Laflamme Janssen, S.Le Roux,
- A.Levitt, A.Lherbier, F.Liu, I.Lukacevic, A.Martin, C.Martins,
- M.J.T.Oliveira, S.Ponce, Y.Pouillon, T.Rangel, G.-M.Rignanese,
- A.H.Romero, B.Rousseau, O.Rubel, A.A.Shukri, M.Stankovski, M.Torrent,
- M.J.Van Setten, B.Van Troeye, M.J.Verstraete, D.Waroquier, J.Wiktor,
- B.Xu, A.Zhou, J.W.Zwanziger.
- Comment: the fourth generic paper describing the ABINIT project.
- Note that a version of this paper, that is not formatted for Computer Phys. Comm. 
- is available at https://www.abinit.org/sites/default/files/ABINIT16.pdf .
- The licence allows the authors to put it on the Web.
- DOI and bibtex: see https://docs.abinit.org/theory/bibliography/#gonze2016
-
- Proc.   0 individual time (sec): cpu=      20446.9  wall=      20677.4
 
================================================================================
 
 Calculation completed.
.Delivered   0 WARNINGs and   0 COMMENTs to log file.
+Overall time at end (sec) : cpu=    1233047.5  wall=    1240634.4
