
.Version 9.3.2 of ABINIT 
.(MPI version, prepared for a x86_64_linux_intel19.1 computer) 

.Copyright (C) 1998-2020 ABINIT group . 
 ABINIT comes with ABSOLUTELY NO WARRANTY.
 It is free software, and you are welcome to redistribute it
 under certain conditions (GNU General Public License,
 see ~abinit/COPYING or http://www.gnu.org/copyleft/gpl.txt).

 ABINIT is a project of the Universite Catholique de Louvain,
 Corning Inc. and other collaborators, see ~abinit/doc/developers/contributors.txt .
 Please read https://docs.abinit.org/theory/acknowledgments for suggested
 acknowledgments of the ABINIT effort.
 For more information, see https://www.abinit.org .

.Starting date : Thu 14 Oct 2021.
- ( at 02h03 )
  
- input  file    -> abi.in
- output file    -> abi.out
- root for input  files -> abi-i
- root for output files -> abi-o
 
- inpspheads : Reading pseudopotential header in XML form from 
-   ~/ABINIT_PAW_PBE/paw_pbe_standard/La.xml
- inpspheads : Reading pseudopotential header in XML form from 
-   ~/ABINIT_PAW_PBE/paw_pbe_standard/Mo.xml
- inpspheads : Reading pseudopotential header in XML form from 
-   ~/ABINIT_PAW_PBE/paw_pbe_standard/O.xml
 
 DATASET    1 : space group P1 (#  1); Bravais aP (primitive triclinic)
================================================================================
 Values of the parameters that define the memory need for DATASET  1.
     intxc =       0    ionmov =       2      iscf =       7    lmnmax =      32
     lnmax =       8     mgfft =      75  mpssoang =       4    mqgrid =    3469
     natom =      26  nloc_mem =       2    nspden =       1   nspinor =       1
    nsppol =       1      nsym =       1    n1xccc =       1    ntypat =       3
    occopt =       1   xclevel =       2
-    mband =         104        mffmem =           1         mkmem =           1
       mpw =        1413          nfft =       27000          nkpt =           4
Pmy_natom=         7
 PAW method is used; the additional fine FFT grid is defined by:
   mgfftf=        75    nfftf =     27000
================================================================================
P This job should need less than                      42.357 Mbytes of memory.
  Rough estimation (10% accuracy) of disk space for files :
_ WF disk file :    134.541 Mbytes ; DEN or POT disk file :      0.208 Mbytes.
================================================================================
 
--------------------------------------------------------------------------------
------------- Echo of variables that govern the present computation ------------
--------------------------------------------------------------------------------
-
- outvars: echo of selected default values                                      
-   iomode0 =  0 , fftalg0 =512 , wfoptalg0 = 10
-
- outvars: echo of global parameters not present in the input file              
-  max_nthreads =    1
-
 -outvars: echo values of preprocessed input variables --------
-          iomode           1
            acell      1.0000000000E+00  1.0000000000E+00  1.0000000000E+00 Bohr
              amu      1.38905500E+02  9.59400000E+01  1.59994000E+01
        autoparal           1
           bandpp          26
     densfor_pred           6
           diemac      4.00000000E+00
          dilatmx      1.04000000E+00
             ecut      3.00000000E+01 Hartree
           ecutsm      5.00000000E-01 Hartree
-          fftalg         401
           ionmov           2
             iscf           7
              ixc     -116133
           jdtset        1
              kpt      2.50000000E-01  2.50000000E-01  2.50000000E-01
                      -2.50000000E-01  2.50000000E-01  2.50000000E-01
                       2.50000000E-01 -2.50000000E-01  2.50000000E-01
                      -2.50000000E-01 -2.50000000E-01  2.50000000E-01
         kptrlatt        2    0    0      0    2    0      0    0    2
          kptrlen      2.66399973E+01
P           mkmem           1
            natom          26
            nband         104
           ndtset           1
            ngfft          72      75      75
          ngfftdg          72      75      75
             nkpt           4
-           npfft          15
-           npkpt           4
            nstep         100
             nsym           1
            ntime         250
           ntypat           3
              occ      2.000000  2.000000  2.000000  2.000000  2.000000  2.000000
                       2.000000  2.000000  2.000000  2.000000  2.000000  2.000000
                       2.000000  2.000000  2.000000  2.000000  2.000000  2.000000
                       2.000000  2.000000  2.000000  2.000000  2.000000  2.000000
                       2.000000  2.000000  2.000000  2.000000  2.000000  2.000000
                       2.000000  2.000000  2.000000  2.000000  2.000000  2.000000
                       2.000000  2.000000  2.000000  2.000000  2.000000  2.000000
                       2.000000  2.000000  2.000000  2.000000  2.000000  2.000000
                       2.000000  2.000000  2.000000  2.000000  2.000000  2.000000
                       2.000000  2.000000  2.000000  2.000000  2.000000  2.000000
                       2.000000  2.000000  2.000000  2.000000  2.000000  2.000000
                       2.000000  2.000000  2.000000  2.000000  2.000000  2.000000
                       2.000000  2.000000  2.000000  2.000000  2.000000  2.000000
                       2.000000  2.000000  2.000000  2.000000  2.000000  2.000000
                       2.000000  2.000000  2.000000  2.000000  2.000000  2.000000
                       2.000000  2.000000  2.000000  2.000000  2.000000  2.000000
                       2.000000  2.000000  2.000000  2.000000  2.000000  2.000000
                       2.000000  2.000000
        paral_kgb           1
        pawecutdg      3.00000000E+01 Hartree
         pawmixdg           1
         pawxcdev           0
           prteig           0
            rprim      1.3319995856E+01  3.9235770265E-04 -8.6083592955E-03
                       6.3848818302E-04  1.3578227983E+01 -6.7658060405E-01
                      -8.6954856006E-03 -7.0147473141E-01  1.3570647793E+01
           shiftk      5.00000000E-01  5.00000000E-01  5.00000000E-01
          spgroup           1
           tolmxf      1.00000000E-10
           tolvrs      1.00000000E-20
            typat      1  1  1  1  2  2  2  2  3  3  3  3  3  3  3  3  3  3  3  3
                       3  3  3  3  3  3
           useylm           1
         wfoptalg         114
              wtk        0.25000    0.25000    0.25000    0.25000
           xangst      6.1676248451E+00  5.6775817515E+00  6.1326410484E+00
                       2.6446379113E+00  4.7336341867E+00  5.1128275709E-01
                       9.0238493538E-01  2.4392484996E+00  4.7457464127E+00
                       4.4357102981E+00  8.0185111909E-01  2.2450326504E+00
                       1.1857472105E+00  1.3941437016E+00  1.3845777860E+00
                       4.7072042635E+00  1.8309832843E+00  5.6105585085E+00
                       5.9106311874E+00  4.3420883940E+00  2.0088093036E+00
                       2.3895916489E+00  6.0644302656E+00  4.6312776985E+00
                       2.2274921364E+00  1.9018947292E+00  2.7845922641E+00
                       5.7548154897E+00  1.3291184276E+00  4.2133235070E+00
                       4.7984312866E+00  5.7210553823E+00  1.1243138571E+00
                       1.2709158434E+00  4.6918569195E+00  5.5341910950E+00
                       6.7367278976E+00  4.4425953888E-01  1.4029695227E+00
                       3.2074492526E+00  2.7734576473E+00  5.5717457440E+00
                       1.7624979513E-01  4.9687126357E+00  8.9296715339E-01
                       3.6995325793E+00  5.4382436503E+00  5.7599725098E+00
                       2.3304365337E+00  7.2414558478E+00  6.1854710699E-01
                       9.4604920398E-01 -1.1559763405E-02  5.3566085435E+00
                       5.8465880356E+00  3.1677242359E+00  6.0312930841E+00
                       4.4635629624E+00  3.2366139640E+00  1.6337094215E+00
                       1.3310826672E+00  2.1759808731E+00  7.2367853512E+00
                       5.9100718924E+00  5.0377827055E+00  3.6187477214E+00
                       2.3742807479E+00  5.3410314558E+00  3.0336767655E+00
                       4.8510694046E+00  1.0447717704E+00 -2.4397291315E-01
                       6.9970751686E+00  2.8580036054E+00  2.3962677875E+00
                       3.4835633397E+00  7.5341685817E+00  4.2262546436E+00
            xcart      1.1655121848E+01  1.0729074607E+01  1.1589012053E+01
                       4.9976413730E+00  8.9452722262E+00  9.6618438737E-01
                       1.7052603943E+00  4.6095116343E+00  8.9681610161E+00
                       8.3822776682E+00  1.5152790144E+00  4.2424968687E+00
                       2.2407374907E+00  2.6345497859E+00  2.6164728251E+00
                       8.8953269097E+00  3.4600569613E+00  1.0602419034E+01
                       1.1169474217E+01  8.2053579095E+00  3.7960994371E+00
                       4.5156737859E+00  1.1460112354E+01  8.7518464955E+00
                       4.2093501010E+00  3.5940601718E+00  5.2621167709E+00
                       1.0875025221E+01  2.5116698264E+00  7.9620275375E+00
                       9.0677209992E+00  1.0811227864E+01  2.1246452774E+00
                       2.4016828820E+00  8.8663246325E+00  1.0458105537E+01
                       1.2730570758E+01  8.3952886041E-01  2.6512281707E+00
                       6.0612006726E+00  5.2410753946E+00  1.0529073538E+01
                       3.3306384377E-01  9.3895061145E+00  1.6874633656E+00
                       6.9911033945E+00  1.0276791143E+01  1.0884770576E+01
                       4.4038868187E+00  1.3684368356E+01  1.1688846325E+00
                       1.7877739037E+00 -2.1844786997E-02  1.0122523148E+01
                       1.1048450199E+01  5.9861312703E+00  1.1397492156E+01
                       8.4349115758E+00  6.1163139899E+00  3.0872633874E+00
                       2.5153817012E+00  4.1120079206E+00  1.3675542396E+01
                       1.1168417302E+01  9.5200296304E+00  6.8384421375E+00
                       4.4867403760E+00  1.0093086719E+01  5.7328182625E+00
                       9.1671926264E+00  1.9743325175E+00 -4.6104198970E-01
                       1.3222555800E+01  5.4008441009E+00  4.5282898594E+00
                       6.5829806786E+00  1.4237515258E+01  7.9864638442E+00
             xred      8.7555439964E-01  8.3644318736E-01  8.9623358899E-01
                       3.7523483127E-01  6.6418556805E-01  1.0454840757E-01
                       1.2844829349E-01  3.7458408900E-01  6.7960669343E-01
                       6.2950269568E-01  1.2807919994E-01  3.1940787371E-01
                       1.6834637548E-01  2.0451550444E-01  2.0310697593E-01
                       6.6832329421E-01  2.9595081334E-01  7.9645474155E-01
                       8.3872278864E-01  6.2035489669E-01  3.1118923866E-01
                       3.3942226618E-01  8.7959047979E-01  6.8897832771E-01
                       3.1626624504E-01  2.8546155783E-01  4.0218986896E-01
                       8.1682361816E-01  2.1584727150E-01  5.9798892799E-01
                       6.8085012588E-01  8.0638574219E-01  1.9719701471E-01
                       1.8079905153E-01  6.9458336643E-01  8.0538554386E-01
                       9.5587567600E-01  7.2111370512E-02  1.9956643838E-01
                       4.5554535234E-01  4.2717598403E-01  7.9745743803E-01
                       2.5075219084E-02  6.9973823195E-01  1.5924873821E-01
                       5.2536928798E-01  8.0035846931E-01  8.4231794494E-01
                       3.3066298565E-01  1.0148820167E+00  1.3694118472E-01
                       1.3470373069E-01  3.7022225787E-02  7.4784427397E-01
                       8.3000463414E-01  4.8550499255E-01  8.6459545441E-01
                       6.3339346090E-01  4.6339891736E-01  2.5100073609E-01
                       1.8949499245E-01  3.5581657712E-01  1.0255893782E+00
                       8.3878811986E-01  7.2903867954E-01  5.4079335556E-01
                       3.3710658713E-01  7.6712999084E-01  4.6090249817E-01
                       6.8820377920E-01  1.4402277564E-01 -2.6356491835E-02
                       9.9289651981E-01  4.1607178177E-01  3.5505623905E-01
                       4.9458566953E-01  1.0817463104E+00  6.4275560905E-01
            znucl       57.00000   42.00000    8.00000
 
================================================================================
 
 chkinp: Checking input parameters for consistency, jdtset=   1.
 
================================================================================
== DATASET  1 ==================================================================
-   mpi_nproc: 60, omp_nthreads: 1 (-1 if OMP is not activated)
 

--- !DatasetInfo
iteration_state: {dtset: 1, }
dimensions: {natom: 26, nkpt: 4, mband: 104, nsppol: 1, nspinor: 1, nspden: 1, mpw: 1413, }
cutoff_energies: {ecut:  30.0, pawecutdg:  30.0, }
electrons: {nelect:   2.08000000E+02, charge:   0.00000000E+00, occopt:   1.00000000E+00, tsmear:   1.00000000E-02, }
meta: {optdriver: 0, ionmov: 2, optcell: 0, iscf: 7, paral_kgb: 1, }
...

 Real(R)+Recip(G) space primitive vectors, cartesian coordinates (Bohr,Bohr^-1):
 R(1)= 13.3199959  0.0003924 -0.0086084  G(1)=  0.0750751 -0.0000011  0.0000480
 R(2)=  0.0006385 13.5782280 -0.6765806  G(2)=  0.0000003  0.0738375  0.0038167
 R(3)= -0.0086955 -0.7014747 13.5706478  G(3)=  0.0000476  0.0036813  0.0738788
 Unit cell volume ucvol=  2.4480910E+03 bohr^3
 Angles (23,13,12)=  9.58116138E+01  9.00737302E+01  8.99937807E+01 degrees
 
 Coarse grid specifications (used for wave-functions):
 
 getcut: wavevector=  0.0000  0.0000  0.0000  ngfft=  72  75  75
         ecut(hartree)=     32.448   => boxcut(ratio)=   2.10800
 
 Fine grid specifications (used for densities):
 
 getcut: wavevector=  0.0000  0.0000  0.0000  ngfft=  72  75  75
         ecut(hartree)=     32.448   => boxcut(ratio)=   2.10800
 
--- Pseudopotential description ------------------------------------------------
- pspini: atom type   1  psp file is ~/ABINIT_PAW_PBE/paw_pbe_standard/La.xml
- pspatm: opening atomic psp file    ~/ABINIT_PAW_PBE/paw_pbe_standard/La.xml
- pspatm : Reading pseudopotential header in XML form from ~/ABINIT_PAW_PBE/paw_pbe_standard/La.xml
 Pseudopotential format is: paw10
 basis_size (lnmax)=  8 (lmn_size= 32), orbitals=   0   0   1   1   2   2   3   3
 Spheres core radius: rc_sph= 2.51647158
 1 radial meshes are used:
  - mesh 1: r(i)=AA*[exp(BB*(i-1))-1], size=1500 , AA= 0.15403E-03 BB= 0.87795E-02
 Shapefunction is SIN type: shapef(r)=[sin(pi*r/rshp)/(pi*r/rshp)]**2
 Radius for shape functions =  2.30494653
 mmax= 1500
 Radial grid used for partial waves is grid 1
 Radial grid used for projectors is grid 1
 Radial grid used for (t)core density is grid 1
 Radial grid used for Vloc is grid 1
 Radial grid used for pseudo valence density is grid 1
 Mesh size for Vloc has been set to 1342 to avoid numerical noise.
 Compensation charge density is not taken into account in XC energy/potential
 pspatm: atomic psp has been read  and splines computed
 
- pspini: atom type   2  psp file is ~/ABINIT_PAW_PBE/paw_pbe_standard/Mo.xml
- pspatm: opening atomic psp file    ~/ABINIT_PAW_PBE/paw_pbe_standard/Mo.xml
- pspatm : Reading pseudopotential header in XML form from ~/ABINIT_PAW_PBE/paw_pbe_standard/Mo.xml
 Pseudopotential format is: paw10
 basis_size (lnmax)=  6 (lmn_size= 18), orbitals=   0   0   1   1   2   2
 Spheres core radius: rc_sph= 2.20000000
 1 radial meshes are used:
  - mesh 1: r(i)=AA*[exp(BB*(i-1))-1], size= 846 , AA= 0.34789E-03 BB= 0.14611E-01
 Shapefunction is SIN type: shapef(r)=[sin(pi*r/rshp)/(pi*r/rshp)]**2
 Radius for shape functions =  1.90088266
 mmax=  846
 Radial grid used for partial waves is grid 1
 Radial grid used for projectors is grid 1
 Radial grid used for (t)core density is grid 1
 Radial grid used for Vloc is grid 1
 Radial grid used for pseudo valence density is grid 1
 Mesh size for Vloc has been set to  751 to avoid numerical noise.
 Compensation charge density is not taken into account in XC energy/potential
 pspatm: atomic psp has been read  and splines computed
 
- pspini: atom type   3  psp file is ~/ABINIT_PAW_PBE/paw_pbe_standard/O.xml
- pspatm: opening atomic psp file    ~/ABINIT_PAW_PBE/paw_pbe_standard/O.xml
- pspatm : Reading pseudopotential header in XML form from ~/ABINIT_PAW_PBE/paw_pbe_standard/O.xml
 Pseudopotential format is: paw10
 basis_size (lnmax)=  4 (lmn_size=  8), orbitals=   0   0   1   1
 Spheres core radius: rc_sph= 1.41465230
 1 radial meshes are used:
  - mesh 1: r(i)=AA*[exp(BB*(i-1))-1], size=2001 , AA= 0.72565E-03 BB= 0.58052E-02
 Shapefunction is SIN type: shapef(r)=[sin(pi*r/rshp)/(pi*r/rshp)]**2
 Radius for shape functions =  1.20231231
 mmax= 2001
 Radial grid used for partial waves is grid 1
 Radial grid used for projectors is grid 1
 Radial grid used for (t)core density is grid 1
 Radial grid used for Vloc is grid 1
 Radial grid used for pseudo valence density is grid 1
 Mesh size for Vloc has been set to 1762 to avoid numerical noise.
 Compensation charge density is not taken into account in XC energy/potential
 pspatm: atomic psp has been read  and splines computed
 
   8.97881771E+04                                ecore*ucvol(ha*bohr**3)
--------------------------------------------------------------------------------
 
_setup2: Arith. and geom. avg. npw (full set) are    1411.750    1411.750
 
================================================================================
 
=== [ionmov= 2] Broyden-Fletcher-Goldfard-Shanno method (forces)            
================================================================================
 
--- Iteration: (  1/250) Internal Cycle: (1/1)
--------------------------------------------------------------------------------
 
---SELF-CONSISTENT-FIELD CONVERGENCE--------------------------------------------

--- !BeginCycle
iteration_state: {dtset: 1, itime: 1, icycle: 1, }
solver: {iscf: 7, nstep: 100, nline: 4, wfoptalg: 114, }
tolerances: {tolvrs: 1.00E-20, }
...
 
     iter   Etot(hartree)      deltaE(h)  residm     vres2
 ETOT  1  -689.01716253573    -6.890E+02 1.478E-02 2.537E+04
 ETOT  2  -685.08822522516     3.929E+00 1.066E-03 5.398E+04
 ETOT  3  -693.53731526783    -8.449E+00 2.069E-03 3.281E+03
 ETOT  4  -694.26423160321    -7.269E-01 3.227E-05 6.218E+02
 ETOT  5  -694.14119824298     1.230E-01 1.202E-04 8.403E+02
 ETOT  6  -694.30282122617    -1.616E-01 4.760E-06 2.307E+02
 ETOT  7  -694.35054253753    -4.772E-02 4.231E-06 4.596E+01
 ETOT  8  -694.35769642967    -7.154E-03 1.023E-06 1.139E+01
 ETOT  9  -694.35997177298    -2.275E-03 2.825E-07 9.663E-01
 ETOT 10  -694.35996088036     1.089E-05 8.580E-08 6.989E-01
 ETOT 11  -694.36008485944    -1.240E-04 2.460E-08 1.577E-01
 ETOT 12  -694.36012098470    -3.613E-05 1.297E-08 6.769E-03
 ETOT 13  -694.36012082919     1.555E-07 2.362E-09 8.217E-03
 ETOT 14  -694.36012246096    -1.632E-06 3.283E-10 9.653E-04
 ETOT 15  -694.36012258768    -1.267E-07 1.137E-10 4.079E-04
 ETOT 16  -694.36012264857    -6.089E-08 1.122E-10 3.325E-05
 ETOT 17  -694.36012265048    -1.915E-09 1.835E-11 4.080E-05
 ETOT 18  -694.36012265612    -5.643E-09 4.234E-12 9.476E-06
 ETOT 19  -694.36012265759    -1.462E-09 2.094E-12 2.402E-06
 ETOT 20  -694.36012265801    -4.193E-10 3.929E-13 3.793E-07
 ETOT 21  -694.36012265806    -5.411E-11 6.219E-14 1.746E-07
 ETOT 22  -694.36012265809    -3.286E-11 3.453E-14 2.029E-08
 ETOT 23  -694.36012265810    -3.979E-12 6.089E-15 8.095E-09
 ETOT 24  -694.36012265810    -2.387E-12 1.200E-15 3.602E-09
 ETOT 25  -694.36012265810     1.023E-12 1.432E-15 1.273E-09
 ETOT 26  -694.36012265810    -7.958E-13 6.209E-16 4.951E-10
 ETOT 27  -694.36012265810     6.821E-13 1.939E-16 1.981E-10
 ETOT 28  -694.36012265810    -1.137E-12 3.955E-17 3.943E-11
 ETOT 29  -694.36012265810     4.547E-13 1.017E-17 7.583E-12
 ETOT 30  -694.36012265810     5.684E-13 1.271E-18 2.325E-12
 ETOT 31  -694.36012265810    -7.958E-13 4.586E-19 7.703E-13
 ETOT 32  -694.36012265810     3.411E-13 1.108E-19 2.283E-13
 ETOT 33  -694.36012265810    -2.274E-13 1.655E-19 9.893E-14
 ETOT 34  -694.36012265810     0.000E+00 4.587E-20 2.984E-14
 ETOT 35  -694.36012265810    -2.274E-13 2.246E-21 3.417E-15
 ETOT 36  -694.36012265810     5.684E-13 2.094E-21 9.831E-16
 ETOT 37  -694.36012265810    -5.684E-13 7.299E-22 5.808E-16
 ETOT 38  -694.36012265810     2.274E-13 9.062E-23 8.017E-17
 ETOT 39  -694.36012265810     0.000E+00 2.570E-23 3.654E-17
 ETOT 40  -694.36012265810     5.684E-13 4.176E-24 6.332E-18
 ETOT 41  -694.36012265810    -3.411E-13 3.153E-25 1.173E-18
 ETOT 42  -694.36012265810    -3.411E-13 1.536E-25 6.773E-19
 ETOT 43  -694.36012265810     0.000E+00 7.310E-26 2.964E-19
 ETOT 44  -694.36012265810     0.000E+00 2.701E-26 5.076E-20
 ETOT 45  -694.36012265810     0.000E+00 5.604E-27 9.505E-21
 
 At SCF step   45       vres2   =  9.51E-21 < tolvrs=  1.00E-20 =>converged.
 
 Cartesian components of stress tensor (hartree/bohr^3)
  sigma(1 1)= -1.11514157E-06  sigma(3 2)= -1.36073840E-06
  sigma(2 2)= -5.31237941E-07  sigma(3 1)= -2.18835487E-07
  sigma(3 3)=  2.79231057E-07  sigma(2 1)= -1.83481380E-08
 

--- !ResultsGS
iteration_state: {dtset: 1, itime: 1, icycle: 1, }
comment   : Summary of ground state results
lattice_vectors:
- [ 13.3199959,   0.0003924,  -0.0086084, ]
- [  0.0006385,  13.5782280,  -0.6765806, ]
- [ -0.0086955,  -0.7014747,  13.5706478, ]
lattice_lengths: [  13.32000,   13.59507,   13.58877, ]
lattice_angles: [ 95.812,  90.074,  89.994, ] # degrees, (23, 13, 12)
lattice_volume:   2.4480910E+03
convergence: {deltae:  0.000E+00, res2:  9.505E-21, residm:  5.604E-27, diffor: null, }
etotal    :  -6.94360123E+02
entropy   :   0.00000000E+00
fermie    :   1.18293306E-01
cartesian_stress_tensor: # hartree/bohr^3
- [ -1.11514157E-06,  -1.83481380E-08,  -2.18835487E-07, ]
- [ -1.83481380E-08,  -5.31237941E-07,  -1.36073840E-06, ]
- [ -2.18835487E-07,  -1.36073840E-06,   2.79231057E-07, ]
pressure_GPa:   1.3408E-02
xred      :
- [  8.7555E-01,   8.3644E-01,   8.9623E-01, La]
- [  3.7523E-01,   6.6419E-01,   1.0455E-01, La]
- [  1.2845E-01,   3.7458E-01,   6.7961E-01, La]
- [  6.2950E-01,   1.2808E-01,   3.1941E-01, La]
- [  1.6835E-01,   2.0452E-01,   2.0311E-01, Mo]
- [  6.6832E-01,   2.9595E-01,   7.9645E-01, Mo]
- [  8.3872E-01,   6.2035E-01,   3.1119E-01, Mo]
- [  3.3942E-01,   8.7959E-01,   6.8898E-01, Mo]
- [  3.1627E-01,   2.8546E-01,   4.0219E-01,  O]
- [  8.1682E-01,   2.1585E-01,   5.9799E-01,  O]
- [  6.8085E-01,   8.0639E-01,   1.9720E-01,  O]
- [  1.8080E-01,   6.9458E-01,   8.0539E-01,  O]
- [  9.5588E-01,   7.2111E-02,   1.9957E-01,  O]
- [  4.5555E-01,   4.2718E-01,   7.9746E-01,  O]
- [  2.5075E-02,   6.9974E-01,   1.5925E-01,  O]
- [  5.2537E-01,   8.0036E-01,   8.4232E-01,  O]
- [  3.3066E-01,   1.0149E+00,   1.3694E-01,  O]
- [  1.3470E-01,   3.7022E-02,   7.4784E-01,  O]
- [  8.3000E-01,   4.8550E-01,   8.6460E-01,  O]
- [  6.3339E-01,   4.6340E-01,   2.5100E-01,  O]
- [  1.8949E-01,   3.5582E-01,   1.0256E+00,  O]
- [  8.3879E-01,   7.2904E-01,   5.4079E-01,  O]
- [  3.3711E-01,   7.6713E-01,   4.6090E-01,  O]
- [  6.8820E-01,   1.4402E-01,  -2.6356E-02,  O]
- [  9.9290E-01,   4.1607E-01,   3.5506E-01,  O]
- [  4.9459E-01,   1.0817E+00,   6.4276E-01,  O]
cartesian_forces: # hartree/bohr
- [ -6.29912935E-05,   1.20830721E-05,  -6.91603761E-04, ]
- [ -2.51735294E-05,  -4.60732979E-06,   6.76421215E-04, ]
- [  3.30802025E-04,   1.76020402E-04,   5.95301553E-04, ]
- [  2.42742853E-04,  -3.25582854E-04,  -5.76515130E-04, ]
- [ -1.34311376E-04,   4.91131163E-04,  -4.47323345E-04, ]
- [ -1.33249470E-04,  -3.51574619E-04,   4.98964144E-04, ]
- [ -3.51472944E-04,  -3.57380983E-05,  -4.62028336E-04, ]
- [ -3.57599283E-04,   4.66876702E-05,   4.02141175E-04, ]
- [  4.75377486E-04,   3.34790324E-04,   7.01099352E-04, ]
- [  4.33478076E-04,  -2.91722594E-04,  -6.48138164E-04, ]
- [ -3.67269188E-04,  -3.19948555E-05,  -2.14586834E-04, ]
- [ -4.05321775E-04,  -5.27379591E-05,   1.72749155E-04, ]
- [ -7.55632366E-04,   5.10655910E-05,  -9.61100695E-05, ]
- [ -8.41441265E-04,   4.46686252E-05,   1.47981772E-04, ]
- [  6.05599895E-04,   1.53648299E-05,   6.86034289E-04, ]
- [  6.28252507E-04,  -1.16271596E-04,  -6.63180009E-04, ]
- [  7.40082460E-04,   4.88715761E-05,  -3.63194795E-04, ]
- [ -5.59439361E-04,   7.22673699E-05,   2.06061323E-04, ]
- [  7.05010486E-04,   1.09331681E-04,   4.08723267E-04, ]
- [ -4.83401065E-04,  -2.02051988E-04,  -2.45732842E-04, ]
- [ -1.59107531E-04,   1.01071724E-03,   1.02079951E-04, ]
- [ -9.92987908E-05,   2.30028986E-04,   1.55165661E-04, ]
- [ -4.55136704E-05,  -2.49946447E-04,  -1.96226652E-04, ]
- [ -7.01258936E-05,  -1.06163573E-03,  -1.89915317E-04, ]
- [  4.13147226E-04,  -8.82575671E-04,  -1.21850817E-04, ]
- [  2.76855790E-04,   9.63411203E-04,   1.63683214E-04, ]
force_length_stats: {min:   2.94703184E-04, max:   1.08076634E-03, mean:   7.23957170E-04, }
...

 Integrated electronic density in atomic spheres:
 ------------------------------------------------
 Atom  Sphere_radius  Integrated_density
    1        2.51647          7.85852116
    2        2.51647          7.85651484
    3        2.51647          7.87569612
    4        2.51647          7.87671406
    5        2.20000         11.48608606
    6        2.20000         11.48649160
    7        2.20000         11.34713982
    8        2.20000         11.36450506
    9        1.41465          4.55294822
   10        1.41465          4.56586909
   11        1.41465          4.56526679
   12        1.41465          4.55664190
   13        1.41465          4.57050555
   14        1.41465          4.56086032
   15        1.41465          4.56162206
   16        1.41465          4.55050582
   17        1.41465          4.54788959
   18        1.41465          4.53810080
   19        1.41465          4.54961991
   20        1.41465          4.54315861
   21        1.41465          4.55799675
   22        1.41465          4.53833474
   23        1.41465          4.54134534
   24        1.41465          4.56953031
   25        1.41465          4.55598882
   26        1.41465          4.56280309
 
 PAW TEST:
 ==== Compensation charge inside spheres ============
 The following values must be close to each other ...
 Compensation charge over spherical meshes =     21.037575759958251
 Compensation charge over fft grid         =     21.037554683658133
 
 ==== Results concerning PAW augmentation regions ====
 
 Total pseudopotential strength Dij (hartree):
 Atom #  1
   0.47288  -0.11718   0.00087  -0.00056  -0.00030   0.00006  -0.00003  -0.00001   0.00000  -0.00001  -0.00000  -0.00000 ...
  -0.11718   0.02308  -0.00016   0.00011   0.00006   0.00006  -0.00003  -0.00002   0.00001   0.00000   0.00000   0.00001 ...
   0.00087  -0.00016  -0.18091  -0.00002  -0.00003   0.04279   0.00001   0.00014  -0.00010  -0.00016  -0.00015   0.00001 ...
  -0.00056   0.00011  -0.00002  -0.18091  -0.00002   0.00001   0.04263   0.00009   0.00001   0.00025  -0.00020  -0.00009 ...
  -0.00030   0.00006  -0.00003  -0.00002  -0.18088   0.00014   0.00009   0.04239   0.00025   0.00001   0.00005  -0.00015 ...
   0.00006   0.00006   0.04279   0.00001   0.00014   0.32001  -0.00001   0.00003  -0.00004  -0.00006  -0.00005   0.00003 ...
  -0.00003  -0.00003   0.00001   0.04263   0.00009  -0.00001   0.31995   0.00003   0.00003   0.00010  -0.00008  -0.00003 ...
  -0.00001  -0.00002   0.00014   0.00009   0.04239   0.00003   0.00003   0.31991   0.00010   0.00003   0.00000  -0.00003 ...
   0.00000   0.00001  -0.00010   0.00001   0.00025  -0.00004   0.00003   0.00010  -0.05772   0.00000  -0.00001  -0.00000 ...
  -0.00001   0.00000  -0.00016   0.00025   0.00001  -0.00006   0.00010   0.00003   0.00000  -0.05770  -0.00000   0.00001 ...
  -0.00000   0.00000  -0.00015  -0.00020   0.00005  -0.00005  -0.00008   0.00000  -0.00001  -0.00000  -0.05773   0.00000 ...
  -0.00000   0.00001   0.00001  -0.00009  -0.00015   0.00003  -0.00003  -0.00003  -0.00000   0.00001   0.00000  -0.05774 ...
   ...  only 12  components have been written...
 Atom # 26
   0.61713  -1.77015   0.00039  -0.00030   0.00025  -0.00279   0.00218  -0.00175
  -1.77015   5.13583  -0.00100   0.00077  -0.00063   0.00734  -0.00585   0.00461
   0.00039  -0.00100  -0.31120   0.00009  -0.00074   0.97378  -0.00046   0.00381
  -0.00030   0.00077   0.00009  -0.31057   0.00011  -0.00046   0.97046  -0.00060
   0.00025  -0.00063  -0.00074   0.00011  -0.31084   0.00381  -0.00060   0.97186
  -0.00279   0.00734   0.97378  -0.00046   0.00381  -0.30284   0.00226  -0.01905
   0.00218  -0.00585  -0.00046   0.97046  -0.00060   0.00226  -0.28628   0.00301
  -0.00175   0.00461   0.00381  -0.00060   0.97186  -0.01905   0.00301  -0.29322
 
 
 Augmentation waves occupancies Rhoij:
 Atom #  1
   2.02479  -0.08082  -0.00883   0.00468   0.00155   0.00469  -0.00260  -0.00110   0.01045   0.00121   0.00292   0.00524 ...
  -0.08082   0.24534   0.03848  -0.02152  -0.00901  -0.01063   0.00639   0.00367  -0.02006  -0.00484  -0.00723  -0.00842 ...
  -0.00883   0.03848   2.04442   0.00303  -0.00718  -0.02007  -0.00118   0.00424  -0.01471  -0.01863  -0.00685   0.01354 ...
   0.00468  -0.02152   0.00303   2.04513  -0.00474  -0.00118  -0.02116   0.00265   0.01312   0.03451  -0.02922  -0.01362 ...
   0.00155  -0.00901  -0.00718  -0.00474   2.05664   0.00425   0.00265  -0.02828   0.03400   0.01422  -0.00354   0.00109 ...
   0.00469  -0.01063  -0.02007  -0.00118   0.00425   0.01406   0.00016  -0.00183   0.00463   0.00433   0.00067  -0.00362 ...
  -0.00260   0.00639  -0.00118  -0.02116   0.00265   0.00016   0.01387  -0.00096  -0.00344  -0.00909   0.00841   0.00385 ...
  -0.00110   0.00367   0.00424   0.00265  -0.02828  -0.00183  -0.00096   0.01706  -0.00936  -0.00385   0.00089  -0.00120 ...
   0.01045  -0.02006  -0.01471   0.01312   0.03400   0.00463  -0.00344  -0.00936   0.10906  -0.00571   0.00935  -0.00434 ...
   0.00121  -0.00484  -0.01863   0.03451   0.01422   0.00433  -0.00909  -0.00385  -0.00571   0.08731  -0.00953  -0.00832 ...
   0.00292  -0.00723  -0.00685  -0.02922  -0.00354   0.00067   0.00841   0.00089   0.00935  -0.00953   0.10490   0.00838 ...
   0.00524  -0.00842   0.01354  -0.01362   0.00109  -0.00362   0.00385  -0.00120  -0.00434  -0.00832   0.00838   0.10634 ...
   ...  only 12  components have been written...
 Atom # 26
   1.99370   0.03105  -0.01271  -0.00336  -0.00660  -0.00268   0.00129  -0.00155
   0.03105   0.00118  -0.00553   0.00427  -0.00338  -0.00025   0.00015  -0.00016
  -0.01271  -0.00553   1.76116   0.00042   0.03455   0.03411   0.00017   0.00687
  -0.00336   0.00427   0.00042   1.74082  -0.00067   0.00016   0.02944  -0.00066
  -0.00660  -0.00338   0.03455  -0.00067   1.74851   0.00687  -0.00066   0.03056
  -0.00268  -0.00025   0.03411   0.00016   0.00687   0.00092  -0.00002   0.00033
   0.00129   0.00015   0.00017   0.02944  -0.00066  -0.00002   0.00064  -0.00004
  -0.00155  -0.00016   0.00687  -0.00066   0.03056   0.00033  -0.00004   0.00075
 
 
 
---OUTPUT-----------------------------------------------------------------------
 
 Cartesian coordinates (xcart) [bohr]
  1.16551218477036E+01  1.07290746073722E+01  1.15890120527452E+01
  4.99764137295778E+00  8.94527222621524E+00  9.66184387370417E-01
  1.70526039431842E+00  4.60951163426857E+00  8.96816101613898E+00
  8.38227766823015E+00  1.51527901442685E+00  4.24249686867663E+00
  2.24073749068178E+00  2.63454978592785E+00  2.61647282513075E+00
  8.89532690965302E+00  3.46005696125911E+00  1.06024190336425E+01
  1.11694742166685E+01  8.20535790945471E+00  3.79609943705029E+00
  4.51567378592754E+00  1.14601123539457E+01  8.75184649548024E+00
  4.20935010098963E+00  3.59406017179870E+00  5.26211677092595E+00
  1.08750252207907E+01  2.51166982637724E+00  7.96202753751091E+00
  9.06772099920389E+00  1.08112278636496E+01  2.12464527741380E+00
  2.40168288199736E+00  8.86632463254499E+00  1.04581055366593E+01
  1.27305707582990E+01  8.39528860410105E-01  2.65122817073119E+00
  6.06120067255058E+00  5.24107539462176E+00  1.05290735381774E+01
  3.33063843774676E-01  9.38950611454727E+00  1.68746336556409E+00
  6.99110339454748E+00  1.02767911429625E+01  1.08847705764477E+01
  4.40388681869546E+00  1.36843683557747E+01  1.16888463250234E+00
  1.78777390374839E+00 -2.18447869970317E-02  1.01225231482477E+01
  1.10484501989998E+01  5.98613127034819E+00  1.13974921561671E+01
  8.43491157582047E+00  6.11631398988284E+00  3.08726338739184E+00
  2.51538170122921E+00  4.11200792056048E+00  1.36755423962209E+01
  1.11684173023041E+01  9.52002963043473E+00  6.83844213751198E+00
  4.48674037604708E+00  1.00930867186243E+01  5.73281826245775E+00
  9.16719262636510E+00  1.97433251749589E+00 -4.61041989701034E-01
  1.32225557998116E+01  5.40084410094831E+00  4.52828985943024E+00
  6.58298067859624E+00  1.42375152584093E+01  7.98646384421679E+00
 Reduced coordinates (xred)
  8.75554399639772E-01  8.36443187363867E-01  8.96233588987418E-01
  3.75234831267055E-01  6.64185568047049E-01  1.04548407568461E-01
  1.28448293492046E-01  3.74584089002055E-01  6.79606693428740E-01
  6.29502695676980E-01  1.28079199935126E-01  3.19407873712353E-01
  1.68346375477893E-01  2.04515504436155E-01  2.03106975934667E-01
  6.68323294207396E-01  2.95950813343412E-01  7.96454741547596E-01
  8.38722788636002E-01  6.20354896689885E-01  3.11189238660833E-01
  3.39422266178911E-01  8.79590479789105E-01  6.88978327706359E-01
  3.16266245044175E-01  2.85461557827474E-01  4.02189868958929E-01
  8.16823618161448E-01  2.15847271501714E-01  5.97988927994603E-01
  6.80850125878368E-01  8.06385742187974E-01  1.97197014708227E-01
  1.80799051528645E-01  6.94583366431508E-01  8.05385543863009E-01
  9.55875675999038E-01  7.21113705119182E-02  1.99566438381381E-01
  4.55545352341931E-01  4.27175984027301E-01  7.97457438030209E-01
  2.50752190844407E-02  6.99738231950964E-01  1.59248738206645E-01
  5.25369287975122E-01  8.00358469305040E-01  8.42317944940719E-01
  3.30662985652920E-01  1.01488201667253E+00  1.36941184716563E-01
  1.34703730692678E-01  3.70222257869828E-02  7.47844273974243E-01
  8.30004634135524E-01  4.85504992549974E-01  8.64595454411939E-01
  6.33393460898938E-01  4.63398917356707E-01  2.51000736089652E-01
  1.89494992454355E-01  3.55816577122056E-01  1.02558937819327E+00
  8.38788119858803E-01  7.29038679537793E-01  5.40793355560349E-01
  3.37106587134240E-01  7.67129990842616E-01  4.60902498170807E-01
  6.88203779201555E-01  1.44022775640426E-01 -2.63564918353650E-02
  9.92896519812299E-01  4.16071781773271E-01  3.55056239045573E-01
  4.94585669525502E-01  1.08174631037008E+00  6.42755609046846E-01
 Cartesian forces (fcart) [Ha/bohr]; max,rms= 1.06164E-03 4.35292E-04 (free atoms)
 -6.29912934835963E-05  1.20830721381841E-05 -6.91603761286706E-04
 -2.51735293860379E-05 -4.60732979205510E-06  6.76421215365310E-04
  3.30802025305938E-04  1.76020402314416E-04  5.95301553126450E-04
  2.42742852957742E-04 -3.25582853523650E-04 -5.76515129943407E-04
 -1.34311376486341E-04  4.91131163498875E-04 -4.47323344673468E-04
 -1.33249470433154E-04 -3.51574618649967E-04  4.98964143554262E-04
 -3.51472943999353E-04 -3.57380983039386E-05 -4.62028336474184E-04
 -3.57599283217541E-04  4.66876702215467E-05  4.02141175004373E-04
  4.75377485831662E-04  3.34790323794181E-04  7.01099352353687E-04
  4.33478076416816E-04 -2.91722593837474E-04 -6.48138163601667E-04
 -3.67269188376498E-04 -3.19948555454850E-05 -2.14586833777158E-04
 -4.05321774605690E-04 -5.27379590568625E-05  1.72749155179658E-04
 -7.55632366187392E-04  5.10655910096787E-05 -9.61100694887963E-05
 -8.41441265441273E-04  4.46686252027903E-05  1.47981771983412E-04
  6.05599894740216E-04  1.53648298901946E-05  6.86034289061947E-04
  6.28252506931823E-04 -1.16271595888461E-04 -6.63180008697165E-04
  7.40082460141572E-04  4.88715761072362E-05 -3.63194795387968E-04
 -5.59439361129610E-04  7.22673698887665E-05  2.06061322618467E-04
  7.05010485962807E-04  1.09331680996763E-04  4.08723267008192E-04
 -4.83401065115080E-04 -2.02051987921475E-04 -2.45732841530377E-04
 -1.59107531137546E-04  1.01071724178601E-03  1.02079951077657E-04
 -9.92987907786281E-05  2.30028986213731E-04  1.55165661440566E-04
 -4.55136703770903E-05 -2.49946446590447E-04 -1.96226651994904E-04
 -7.01258935888291E-05 -1.06163572644034E-03 -1.89915317380564E-04
  4.13147225520206E-04 -8.82575670851770E-04 -1.21850817348487E-04
  2.76855789934876E-04  9.63411203339552E-04  1.63683213810872E-04
 Reduced forces (fred)
  8.33085453610190E-04 -6.31952179607195E-04  9.39343928675336E-03
  3.41135991680510E-04  5.20228921795250E-04 -9.18292489504380E-03
 -4.40122609952471E-03 -1.98748688108782E-03 -7.95227735952449E-03
 -3.23816889990154E-03  4.03062426924267E-03  7.59740639815314E-03
  1.78498355904085E-03 -6.97125545013299E-03  6.41381575859021E-03
  1.77931559961314E-03  5.11143486497395E-03 -7.01904603363689E-03
  4.67765487375103E-03  1.72885046796349E-04  6.24189822392470E-03
  4.76666442801140E-03 -3.61626588255578E-04 -5.42767552760657E-03
 -6.32612218373594E-03 -4.07181264262082E-03 -9.27539178826904E-03
 -5.77939112810571E-03  3.52228140609263E-03  8.59478801376595E-03
  4.89018938006424E-03  2.89482650302996E-04  2.88644517560279E-03
  5.40039213702356E-03  8.33225552363829E-04 -2.38483675683065E-03
  1.00641726002669E-02 -7.57923983356952E-04  1.33352653378817E-03
  1.12092505229055E-02 -5.05861929715505E-04 -1.98419133593744E-03
 -8.06068848717735E-03  2.55143662144876E-04 -9.29388568581518E-03
 -8.37398406057259E-03  1.12966637425770E-03  8.92368369563422E-03
 -9.86104098859617E-03 -9.09792490236356E-04  4.96950620062272E-03
  7.45347546715724E-03 -8.41488534542161E-04 -2.75055649607744E-03
 -9.38726121183432E-03 -1.20844639633697E-03 -5.46381568135272E-03
  6.43686410416891E-03  2.57755852795555E-03  3.18881607266545E-03
  2.11979383360690E-03 -1.36545822322256E-02 -6.77681974352122E-04
  1.32390494979386E-03 -3.01834053949190E-03 -1.94520247088937E-03
  6.04650779702805E-04  3.26109574858525E-03  2.48719590190224E-03
  9.32858293666546E-04  1.42866836830611E-02  1.83195346794270E-03
 -5.50382198208935E-03  1.19011079819752E-02  1.03808250963751E-03
 -3.68668693252596E-03 -1.29708488419375E-02 -1.54307123364745E-03
 Total energy (etotal) [Ha]= -6.94360122658099E+02
 
--- Iteration: (  2/250) Internal Cycle: (1/1)
--------------------------------------------------------------------------------
 
---SELF-CONSISTENT-FIELD CONVERGENCE--------------------------------------------

--- !BeginCycle
iteration_state: {dtset: 1, itime: 2, icycle: 1, }
solver: {iscf: 7, nstep: 100, nline: 4, wfoptalg: 114, }
tolerances: {tolvrs: 1.00E-20, }
...
 
     iter   Etot(hartree)      deltaE(h)  residm     vres2
 ETOT  1  -694.36013463067    -6.944E+02 4.549E-11 2.082E+01
 ETOT  2  -694.36013493741    -3.067E-07 5.387E-12 1.903E+00
 ETOT  3  -694.36013041465     4.523E-06 2.724E-09 2.284E-02
 ETOT  4  -694.36013492756    -4.513E-06 2.627E-09 2.325E-03
 ETOT  5  -694.36013535500    -4.274E-07 2.081E-10 1.226E-03
 ETOT  6  -694.36013556799    -2.130E-07 2.430E-10 1.168E-04
 ETOT  7  -694.36013557472    -6.728E-09 2.831E-11 1.155E-04
 ETOT  8  -694.36013559477    -2.005E-08 8.591E-12 1.673E-05
 ETOT  9  -694.36013559770    -2.932E-09 2.001E-12 2.731E-06
 ETOT 10  -694.36013559784    -1.364E-10 6.009E-13 1.560E-06
 ETOT 11  -694.36013559819    -3.510E-10 1.554E-13 8.134E-08
 ETOT 12  -694.36013559820    -1.648E-11 5.806E-14 1.673E-08
 ETOT 13  -694.36013559821    -3.411E-12 1.363E-14 7.584E-09
 ETOT 14  -694.36013559821    -3.070E-12 4.668E-15 1.895E-09
 ETOT 15  -694.36013559821    -2.274E-13 4.684E-16 4.879E-10
 ETOT 16  -694.36013559821     5.684E-13 1.233E-16 1.842E-10
 ETOT 17  -694.36013559821    -5.684E-13 8.609E-17 7.303E-11
 ETOT 18  -694.36013559821     5.684E-13 1.638E-17 9.799E-12
 ETOT 19  -694.36013559821    -1.137E-13 3.411E-18 3.600E-12
 ETOT 20  -694.36013559821     2.274E-13 1.131E-18 1.377E-12
 ETOT 21  -694.36013559821    -5.684E-13 1.345E-19 2.025E-13
 ETOT 22  -694.36013559821     2.274E-13 4.863E-20 3.710E-14
 ETOT 23  -694.36013559821     0.000E+00 5.089E-21 9.231E-15
 ETOT 24  -694.36013559821    -3.411E-13 7.462E-21 4.522E-15
 ETOT 25  -694.36013559821     4.547E-13 6.546E-22 1.330E-15
 ETOT 26  -694.36013559821     2.274E-13 2.747E-22 1.675E-16
 ETOT 27  -694.36013559821    -4.547E-13 1.706E-22 1.220E-16
 ETOT 28  -694.36013559821    -1.137E-13 1.825E-23 1.845E-17
 ETOT 29  -694.36013559821     3.411E-13 5.488E-24 1.394E-17
 ETOT 30  -694.36013559821     2.274E-13 1.371E-24 2.155E-18
 ETOT 31  -694.36013559821    -4.547E-13 2.571E-25 1.653E-18
 ETOT 32  -694.36013559821     2.274E-13 1.339E-25 2.197E-19
 ETOT 33  -694.36013559821     4.547E-13 1.337E-26 7.526E-20
 ETOT 34  -694.36013559821    -2.274E-13 6.055E-27 9.886E-21
 
 At SCF step   34       vres2   =  9.89E-21 < tolvrs=  1.00E-20 =>converged.
 
 Cartesian components of stress tensor (hartree/bohr^3)
  sigma(1 1)=  4.56462436E-07  sigma(3 2)= -8.69559989E-07
  sigma(2 2)=  6.06286074E-07  sigma(3 1)= -2.11365459E-07
  sigma(3 3)=  1.68901319E-06  sigma(2 1)= -2.32791174E-08
 

--- !ResultsGS
iteration_state: {dtset: 1, itime: 2, icycle: 1, }
comment   : Summary of ground state results
lattice_vectors:
- [ 13.3199959,   0.0003924,  -0.0086084, ]
- [  0.0006385,  13.5782280,  -0.6765806, ]
- [ -0.0086955,  -0.7014747,  13.5706478, ]
lattice_lengths: [  13.32000,   13.59507,   13.58877, ]
lattice_angles: [ 95.812,  90.074,  89.994, ] # degrees, (23, 13, 12)
lattice_volume:   2.4480910E+03
convergence: {deltae: -2.274E-13, res2:  9.886E-21, residm:  6.055E-27, diffor: null, }
etotal    :  -6.94360136E+02
entropy   :   0.00000000E+00
fermie    :   1.18297417E-01
cartesian_stress_tensor: # hartree/bohr^3
- [  4.56462436E-07,  -2.32791174E-08,  -2.11365459E-07, ]
- [ -2.32791174E-08,   6.06286074E-07,  -8.69559989E-07, ]
- [ -2.11365459E-07,  -8.69559989E-07,   1.68901319E-06, ]
pressure_GPa:  -2.6987E-02
xred      :
- [  8.7555E-01,   8.3644E-01,   8.9618E-01, La]
- [  3.7523E-01,   6.6419E-01,   1.0460E-01, La]
- [  1.2847E-01,   3.7460E-01,   6.7965E-01, La]
- [  6.2952E-01,   1.2805E-01,   3.1936E-01, La]
- [  1.6834E-01,   2.0455E-01,   2.0308E-01, Mo]
- [  6.6831E-01,   2.9593E-01,   7.9649E-01, Mo]
- [  8.3870E-01,   6.2035E-01,   3.1115E-01, Mo]
- [  3.3940E-01,   8.7960E-01,   6.8901E-01, Mo]
- [  3.1630E-01,   2.8549E-01,   4.0224E-01,  O]
- [  8.1686E-01,   2.1582E-01,   5.9794E-01,  O]
- [  6.8082E-01,   8.0638E-01,   1.9718E-01,  O]
- [  1.8077E-01,   6.9458E-01,   8.0540E-01,  O]
- [  9.5582E-01,   7.2115E-02,   1.9956E-01,  O]
- [  4.5548E-01,   4.2718E-01,   7.9747E-01,  O]
- [  2.5121E-02,   6.9974E-01,   1.5930E-01,  O]
- [  5.2542E-01,   8.0035E-01,   8.4227E-01,  O]
- [  3.3072E-01,   1.0149E+00,   1.3691E-01,  O]
- [  1.3466E-01,   3.7028E-02,   7.4786E-01,  O]
- [  8.3006E-01,   4.8551E-01,   8.6463E-01,  O]
- [  6.3336E-01,   4.6338E-01,   2.5098E-01,  O]
- [  1.8948E-01,   3.5589E-01,   1.0256E+00,  O]
- [  8.3878E-01,   7.2906E-01,   5.4081E-01,  O]
- [  3.3710E-01,   7.6711E-01,   4.6089E-01,  O]
- [  6.8820E-01,   1.4394E-01,  -2.6374E-02,  O]
- [  9.9293E-01,   4.1601E-01,   3.5504E-01,  O]
- [  4.9461E-01,   1.0818E+00,   6.4277E-01,  O]
cartesian_forces: # hartree/bohr
- [ -5.13274950E-05,  -7.57923271E-06,  -6.68307320E-04, ]
- [ -2.15864774E-05,   1.56843490E-05,   6.45794840E-04, ]
- [  2.74675521E-04,   1.28395539E-04,   4.73938807E-04, ]
- [  1.93959790E-04,  -2.67204978E-04,  -4.54148226E-04, ]
- [ -6.59761232E-05,   3.28477878E-04,  -6.87522246E-05, ]
- [ -6.49209719E-05,  -2.00465317E-04,   1.21053427E-04, ]
- [ -2.09716551E-04,  -5.01916623E-05,  -1.98863242E-04, ]
- [ -2.07952887E-04,   4.07861087E-05,   1.63512408E-04, ]
- [  2.85142242E-04,   2.06870790E-04,   3.52015045E-04, ]
- [  2.31414490E-04,  -1.61540522E-04,  -2.96168232E-04, ]
- [ -2.83207199E-04,  -1.14524302E-04,  -2.00247679E-04, ]
- [ -3.13848980E-04,   4.04483403E-05,   1.53679978E-04, ]
- [ -4.48632091E-04,   1.54924774E-04,  -1.71052673E-04, ]
- [ -5.04388073E-04,  -7.16489902E-05,   2.25800217E-04, ]
- [  4.83598194E-04,   7.84184807E-06,   6.93206384E-04, ]
- [  4.91727689E-04,  -9.56067818E-05,  -6.83776907E-04, ]
- [  5.62060218E-04,   2.23851364E-04,  -3.21600440E-04, ]
- [ -4.84007725E-04,   2.97436970E-05,   2.19488434E-04, ]
- [  5.22174344E-04,  -7.80994632E-05,   3.66639794E-04, ]
- [ -4.06795027E-04,  -1.58308481E-04,  -2.61250896E-04, ]
- [ -1.56473360E-04,   9.38245185E-04,   1.32415823E-04, ]
- [ -9.98700194E-05,   9.72965386E-05,  -1.05257998E-04, ]
- [ -4.35786492E-05,  -1.07102703E-04,   6.11696426E-05, ]
- [ -7.24249093E-05,  -9.80674401E-04,  -2.24202448E-04, ]
- [  2.61199751E-04,  -6.86269649E-04,  -1.81703868E-04, ]
- [  1.28754303E-04,   7.66650072E-04,   2.26617353E-04, ]
force_length_stats: {min:   1.30812128E-04, max:   1.00858038E-03, mean:   5.45202280E-04, }
...

 Integrated electronic density in atomic spheres:
 ------------------------------------------------
 Atom  Sphere_radius  Integrated_density
    1        2.51647          7.85820671
    2        2.51647          7.85696626
    3        2.51647          7.87523300
    4        2.51647          7.87756191
    5        2.20000         11.48353900
    6        2.20000         11.48059290
    7        2.20000         11.34584310
    8        2.20000         11.36370164
    9        1.41465          4.55357068
   10        1.41465          4.56543772
   11        1.41465          4.56529546
   12        1.41465          4.55666427
   13        1.41465          4.56910860
   14        1.41465          4.56246497
   15        1.41465          4.56319965
   16        1.41465          4.55044570
   17        1.41465          4.54778489
   18        1.41465          4.53726405
   19        1.41465          4.55033591
   20        1.41465          4.54389076
   21        1.41465          4.55818583
   22        1.41465          4.53818316
   23        1.41465          4.54014000
   24        1.41465          4.57023003
   25        1.41465          4.55589727
   26        1.41465          4.56179956
 
 PAW TEST:
 ==== Compensation charge inside spheres ============
 The following values must be close to each other ...
 Compensation charge over spherical meshes =     21.037062286068377
 Compensation charge over fft grid         =     21.037040052037376
 
 ==== Results concerning PAW augmentation regions ====
 
 Total pseudopotential strength Dij (hartree):
 Atom #  1
   0.47288  -0.11718   0.00087  -0.00056  -0.00030   0.00006  -0.00003  -0.00001   0.00000  -0.00001  -0.00000  -0.00000 ...
  -0.11718   0.02308  -0.00016   0.00011   0.00006   0.00006  -0.00003  -0.00002   0.00001   0.00000   0.00000   0.00001 ...
   0.00087  -0.00016  -0.18091  -0.00002  -0.00003   0.04279   0.00001   0.00014  -0.00010  -0.00016  -0.00015   0.00001 ...
  -0.00056   0.00011  -0.00002  -0.18091  -0.00002   0.00001   0.04263   0.00009   0.00001   0.00025  -0.00020  -0.00009 ...
  -0.00030   0.00006  -0.00003  -0.00002  -0.18088   0.00014   0.00009   0.04239   0.00025   0.00001   0.00005  -0.00015 ...
   0.00006   0.00006   0.04279   0.00001   0.00014   0.32001  -0.00001   0.00003  -0.00004  -0.00006  -0.00005   0.00003 ...
  -0.00003  -0.00003   0.00001   0.04263   0.00009  -0.00001   0.31995   0.00003   0.00003   0.00010  -0.00008  -0.00003 ...
  -0.00001  -0.00002   0.00014   0.00009   0.04239   0.00003   0.00003   0.31991   0.00010   0.00003   0.00000  -0.00003 ...
   0.00000   0.00001  -0.00010   0.00001   0.00025  -0.00004   0.00003   0.00010  -0.05772   0.00000  -0.00001  -0.00000 ...
  -0.00001   0.00000  -0.00016   0.00025   0.00001  -0.00006   0.00010   0.00003   0.00000  -0.05770  -0.00000   0.00001 ...
  -0.00000   0.00000  -0.00015  -0.00020   0.00005  -0.00005  -0.00008   0.00000  -0.00001  -0.00000  -0.05772   0.00000 ...
  -0.00000   0.00001   0.00001  -0.00009  -0.00015   0.00003  -0.00003  -0.00003  -0.00000   0.00001   0.00000  -0.05774 ...
   ...  only 12  components have been written...
 Atom # 26
   0.61713  -1.77015   0.00039  -0.00030   0.00024  -0.00278   0.00218  -0.00174
  -1.77015   5.13580  -0.00100   0.00077  -0.00062   0.00732  -0.00586   0.00459
   0.00039  -0.00100  -0.31120   0.00009  -0.00074   0.97374  -0.00045   0.00381
  -0.00030   0.00077   0.00009  -0.31056   0.00011  -0.00045   0.97043  -0.00060
   0.00024  -0.00062  -0.00074   0.00011  -0.31083   0.00381  -0.00060   0.97182
  -0.00278   0.00732   0.97374  -0.00045   0.00381  -0.30265   0.00224  -0.01904
   0.00218  -0.00586  -0.00045   0.97043  -0.00060   0.00224  -0.28611   0.00300
  -0.00174   0.00459   0.00381  -0.00060   0.97182  -0.01904   0.00300  -0.29303
 
 
 Augmentation waves occupancies Rhoij:
 Atom #  1
   2.02479  -0.08082  -0.00882   0.00465   0.00154   0.00469  -0.00259  -0.00110   0.01044   0.00117   0.00295   0.00525 ...
  -0.08082   0.24535   0.03844  -0.02139  -0.00898  -0.01062   0.00635   0.00366  -0.02003  -0.00476  -0.00730  -0.00845 ...
  -0.00882   0.03844   2.04444   0.00305  -0.00718  -0.02007  -0.00119   0.00424  -0.01469  -0.01856  -0.00687   0.01354 ...
   0.00465  -0.02139   0.00305   2.04512  -0.00474  -0.00119  -0.02116   0.00265   0.01311   0.03445  -0.02910  -0.01358 ...
   0.00154  -0.00898  -0.00718  -0.00474   2.05666   0.00425   0.00265  -0.02829   0.03397   0.01421  -0.00353   0.00118 ...
   0.00469  -0.01062  -0.02007  -0.00119   0.00425   0.01406   0.00016  -0.00183   0.00463   0.00431   0.00068  -0.00362 ...
  -0.00259   0.00635  -0.00119  -0.02116   0.00265   0.00016   0.01386  -0.00096  -0.00343  -0.00908   0.00838   0.00384 ...
  -0.00110   0.00366   0.00424   0.00265  -0.02829  -0.00183  -0.00096   0.01707  -0.00936  -0.00385   0.00089  -0.00122 ...
   0.01044  -0.02003  -0.01469   0.01311   0.03397   0.00463  -0.00343  -0.00936   0.10909  -0.00576   0.00937  -0.00430 ...
   0.00117  -0.00476  -0.01856   0.03445   0.01421   0.00431  -0.00908  -0.00385  -0.00576   0.08726  -0.00947  -0.00827 ...
   0.00295  -0.00730  -0.00687  -0.02910  -0.00353   0.00068   0.00838   0.00089   0.00937  -0.00947   0.10492   0.00837 ...
   0.00525  -0.00845   0.01354  -0.01358   0.00118  -0.00362   0.00384  -0.00122  -0.00430  -0.00827   0.00837   0.10627 ...
   ...  only 12  components have been written...
 Atom # 26
   1.99366   0.03104  -0.01263  -0.00339  -0.00655  -0.00267   0.00129  -0.00154
   0.03104   0.00118  -0.00552   0.00428  -0.00337  -0.00025   0.00015  -0.00016
  -0.01263  -0.00552   1.76097   0.00044   0.03438   0.03410   0.00018   0.00687
  -0.00339   0.00428   0.00044   1.74071  -0.00063   0.00017   0.02943  -0.00066
  -0.00655  -0.00337   0.03438  -0.00063   1.74841   0.00687  -0.00065   0.03055
  -0.00267  -0.00025   0.03410   0.00017   0.00687   0.00092  -0.00002   0.00033
   0.00129   0.00015   0.00018   0.02943  -0.00065  -0.00002   0.00064  -0.00004
  -0.00154  -0.00016   0.00687  -0.00066   0.03055   0.00033  -0.00004   0.00075
 
 
 
---OUTPUT-----------------------------------------------------------------------
 
 Cartesian coordinates (xcart) [bohr]
  1.16550588564101E+01  1.07290866904443E+01  1.15883204489839E+01
  4.99761619942839E+00  8.94526761888545E+00  9.66860808585782E-01
  1.70559119634373E+00  4.60968765467088E+00  8.96875631769210E+00
  8.38252041108310E+00  1.51495343157332E+00  4.24192035354669E+00
  2.24060317930529E+00  2.63504091709135E+00  2.61602550178607E+00
  8.89519366018259E+00  3.45970538664046E+00  1.06029179977861E+01
  1.11691227437245E+01  8.20532217135641E+00  3.79563740871382E+00
  4.51531618664432E+00  1.14601590416159E+01  8.75224863665525E+00
  4.20982547847546E+00  3.59439496212250E+00  5.26281787027830E+00
  1.08754586988671E+01  2.51137810378340E+00  7.96137939934731E+00
  9.06735373001551E+00  1.08111958687941E+01  2.12443069058002E+00
  2.40127756022275E+00  8.86627189458594E+00  1.04582782858145E+01
  1.27298151259328E+01  8.39579926001114E-01  2.65113206066170E+00
  6.06035923128514E+00  5.24112006324697E+00  1.05292215199494E+01
  3.33669443669416E-01  9.38952147937716E+00  1.68814939985315E+00
  6.99173164705441E+00  1.02766748713666E+01  1.08841073964390E+01
  4.40462690115560E+00  1.36844172273508E+01  1.16852143770695E+00
  1.78721446438726E+00 -2.17725196271429E-02  1.01227292095703E+01
  1.10491552094857E+01  5.98624060202918E+00  1.13979008794341E+01
  8.43442817475536E+00  6.11611193789491E+00  3.08701765455031E+00
  2.51522259369807E+00  4.11301863780226E+00  1.36756444761720E+01
  1.11683180035134E+01  9.52025965942095E+00  6.83859730317342E+00
  4.48669486237670E+00  1.00928367721777E+01  5.73262203580576E+00
  9.16712250047151E+00  1.97327088176944E+00 -4.61231905018414E-01
  1.32229689470371E+01  5.39996152527746E+00  4.52816800861289E+00
  6.58325753438617E+00  1.42384786696127E+01  7.98662752743061E+00
 Reduced coordinates (xred)
  8.75549637317612E-01  8.36441439882806E-01  8.96182535634666E-01
  3.75232973865762E-01  6.64187809545191E-01  1.04598362573608E-01
  1.28473156898909E-01  3.74599358093148E-01  6.79651337307675E-01
  6.29520892298684E-01  1.28052959397142E-01  3.19364094495990E-01
  1.68336269983713E-01  2.04550060990063E-01  2.03075729818141E-01
  6.68313314858919E-01  2.95926758314421E-01  7.96490303819865E-01
  8.38696379601122E-01  6.20350494350680E-01  3.11154956272892E-01
  3.39395438634707E-01  8.79595461838907E-01  6.89008192234442E-01
  3.16301967375248E-01  2.85488953932446E-01  4.02242920408443E-01
  8.16856130775072E-01  2.15823257812153E-01  5.97939991091218E-01
  6.80822542822759E-01  8.06382560646649E-01  1.97181026020650E-01
  1.80768630303777E-01  6.94580131606926E-01  8.05398092907194E-01
  9.55818942125538E-01  7.21147740230986E-02  1.99559489877018E-01
  4.55482188089153E-01  4.27179846803705E-01  7.97468495093459E-01
  2.51207175188385E-02  6.99741985017517E-01  1.59299506984854E-01
  5.25416422382294E-01  8.00347353123776E-01  8.42268551922667E-01
  3.30718529933820E-01  1.01488423923620E+00  1.36914567497378E-01
  1.34661740528533E-01  3.70283481401577E-02  7.47859736914908E-01
  8.30057582402435E-01  4.85514625508262E-01  8.64626086445412E-01
  6.33357157924413E-01  4.63383060314196E-01  2.50981814817662E-01
  1.89483051192030E-01  3.55891595511343E-01  1.02560063286187E+00
  8.38780672182984E-01  7.29056256493694E-01  5.40805661072890E-01
  3.37103161045589E-01  7.67110786471525E-01  4.60887078903195E-01
  6.88198506572529E-01  1.43943662249509E-01 -2.63744340364737E-02
  9.92927532042074E-01  4.16006149650830E-01  3.55044007553274E-01
  4.94606461279521E-01  1.08181807104864E+00  6.42771261511134E-01
 Cartesian forces (fcart) [Ha/bohr]; max,rms= 9.80674E-04 3.42372E-04 (free atoms)
 -5.13274950295673E-05 -7.57923271227479E-06 -6.68307319722583E-04
 -2.15864774029600E-05  1.56843489650488E-05  6.45794839799854E-04
  2.74675520895403E-04  1.28395539363635E-04  4.73938807073001E-04
  1.93959789688007E-04 -2.67204978271650E-04 -4.54148225891874E-04
 -6.59761231856546E-05  3.28477877610075E-04 -6.87522245904304E-05
 -6.49209719465479E-05 -2.00465317088634E-04  1.21053426784206E-04
 -2.09716551395402E-04 -5.01916622795238E-05 -1.98863241689484E-04
 -2.07952887199364E-04  4.07861086753128E-05  1.63512408019357E-04
  2.85142241742455E-04  2.06870789587181E-04  3.52015045211591E-04
  2.31414489725395E-04 -1.61540521703986E-04 -2.96168231794272E-04
 -2.83207199180259E-04 -1.14524302129391E-04 -2.00247678872520E-04
 -3.13848979721287E-04  4.04483403440968E-05  1.53679978294593E-04
 -4.48632090543802E-04  1.54924773603142E-04 -1.71052672599045E-04
 -5.04388072984683E-04 -7.16489902406478E-05  2.25800217320184E-04
  4.83598193637839E-04  7.84184807292040E-06  6.93206383821199E-04
  4.91727688664018E-04 -9.56067818283551E-05 -6.83776906829480E-04
  5.62060217659927E-04  2.23851364352052E-04 -3.21600440446031E-04
 -4.84007725277534E-04  2.97436970112478E-05  2.19488433723461E-04
  5.22174343525972E-04 -7.80994632242122E-05  3.66639793944162E-04
 -4.06795026703206E-04 -1.58308480607042E-04 -2.61250896131876E-04
 -1.56473360486237E-04  9.38245185395462E-04  1.32415822759360E-04
 -9.98700194147523E-05  9.72965385715447E-05 -1.05257997915367E-04
 -4.35786491903117E-05 -1.07102703227482E-04  6.11696425992996E-05
 -7.24249092757143E-05 -9.80674400767477E-04 -2.24202447845867E-04
  2.61199750501360E-04 -6.86269649099944E-04 -1.81703868283673E-04
  1.28754302896905E-04  7.66650071628900E-04  2.26617353262236E-04
 Reduced forces (fred)
  6.77931965333670E-04 -3.49218448365383E-04  9.06360029583002E-03
  2.93084869689509E-04  2.23980379500314E-04 -8.75303984799868E-03
 -3.65464734150744E-03 -1.42290147820029E-03 -6.33920196277849E-03
 -2.58734822604008E-03  3.32077839116780E-03  5.97733465366716E-03
  8.78080962749002E-04 -4.50662180627727E-03  1.16285746145536E-03
  8.65867802796725E-04  2.80390763003228E-03 -1.78395929288367E-03
  2.79173140236584E-03  5.47100722638599E-04  2.66167124190736E-03
  2.77132316654671E-03 -4.43040982890192E-04 -2.19216712575238E-03
 -3.79514437373344E-03 -2.57095425209576E-03 -4.62947811464521E-03
 -3.08492618503754E-03  1.99290459562798E-03  3.90789042849617E-03
  3.77063984998698E-03  1.41973421284224E-03  2.63469219318096E-03
  4.18177417154062E-03 -4.45039505322213E-04 -2.05989243890358E-03
  5.97424431810742E-03 -2.21904837048365E-03  2.42607031399140E-03
  6.72041892339098E-03  1.12596041750301E-03 -3.11890107628490E-03
 -6.43556164240360E-03  3.62222821221859E-04 -9.39755370341712E-03
 -6.55565946050647E-03  8.35226525423519E-04  9.21650564112082E-03
 -7.48949605198539E-03 -3.25745234857702E-03  4.52623976963652E-03
  6.44885866008564E-03 -2.55056048796598E-04 -2.96194445907006E-03
 -6.95217328185701E-03  1.30818028812730E-03 -5.02578375108132E-03
  5.41632124188865E-03  1.97305108605158E-03  3.43075721784588E-03
  2.08499626850007E-03 -1.26500171476475E-02 -1.14017381534174E-03
  1.32932397102930E-03 -1.39226633667871E-03  1.49580186206988E-03
  5.81036019455900E-04  1.49567894022573E-03 -9.05620452845700E-04
  9.63154251350674E-04  1.31641758057103E-02  2.35402437244908E-03
 -3.48047450325989E-03  9.19522166747604E-03  1.98670964002721E-03
 -1.71335677848681E-03 -1.02565067582139E-02 -2.53643905067497E-03
 Total energy (etotal) [Ha]= -6.94360135598211E+02
 
 Difference of energy with previous step (new-old):
           Absolute (Ha)=-1.29401E-05
           Relative     =-1.86360E-08
 
--- Iteration: (  3/250) Internal Cycle: (1/1)
--------------------------------------------------------------------------------
 
---SELF-CONSISTENT-FIELD CONVERGENCE--------------------------------------------

--- !BeginCycle
iteration_state: {dtset: 1, itime: 3, icycle: 1, }
solver: {iscf: 7, nstep: 100, nline: 4, wfoptalg: 114, }
tolerances: {tolvrs: 1.00E-20, }
...
 
     iter   Etot(hartree)      deltaE(h)  residm     vres2
 ETOT  1  -694.36015089248    -6.944E+02 5.663E-10 2.742E+02
 ETOT  2  -694.36016020377    -9.311E-06 2.213E-11 2.514E+01
 ETOT  3  -694.36015598462     4.219E-06 1.483E-08 5.655E-02
 ETOT  4  -694.36014638664     9.598E-06 6.594E-08 8.068E-02
 ETOT  5  -694.36016090558    -1.452E-05 7.071E-09 1.287E-02
 ETOT  6  -694.36016293316    -2.028E-06 1.696E-09 2.392E-03
 ETOT  7  -694.36016354052    -6.074E-07 1.583E-10 2.828E-04
 ETOT  8  -694.36016357798    -3.746E-08 2.744E-10 1.942E-04
 ETOT  9  -694.36016361182    -3.384E-08 6.198E-11 1.275E-05
 ETOT 10  -694.36016361504    -3.218E-09 1.071E-11 1.056E-05
 ETOT 11  -694.36016361762    -2.584E-09 2.532E-12 6.739E-07
 ETOT 12  -694.36016361769    -7.049E-11 1.725E-13 7.628E-07
 ETOT 13  -694.36016361782    -1.243E-10 9.654E-14 1.190E-07
 ETOT 14  -694.36016361783    -1.091E-11 2.753E-14 4.622E-08
 ETOT 15  -694.36016361783    -3.638E-12 1.389E-14 1.757E-08
 ETOT 16  -694.36016361784    -5.116E-12 9.577E-15 3.766E-09
 ETOT 17  -694.36016361784     5.684E-13 3.888E-16 4.076E-10
 ETOT 18  -694.36016361784     0.000E+00 1.352E-16 1.195E-10
 ETOT 19  -694.36016361784    -1.137E-13 2.108E-17 2.905E-11
 ETOT 20  -694.36016361784     0.000E+00 1.092E-17 1.081E-11
 ETOT 21  -694.36016361784    -3.411E-13 5.365E-18 3.735E-12
 ETOT 22  -694.36016361784     3.411E-13 9.927E-19 1.132E-12
 ETOT 23  -694.36016361784    -3.411E-13 1.312E-18 5.919E-13
 ETOT 24  -694.36016361784     4.547E-13 2.428E-19 1.560E-13
 ETOT 25  -694.36016361784    -3.411E-13 6.287E-20 2.745E-14
 ETOT 26  -694.36016361784    -3.411E-13 1.583E-20 1.209E-14
 ETOT 27  -694.36016361784     7.958E-13 3.973E-21 2.801E-15
 ETOT 28  -694.36016361784    -3.411E-13 2.402E-21 2.155E-15
 ETOT 29  -694.36016361784     1.137E-13 4.314E-22 3.041E-16
 ETOT 30  -694.36016361784    -3.411E-13 1.282E-22 1.456E-16
 ETOT 31  -694.36016361784     4.547E-13 2.453E-23 3.386E-17
 ETOT 32  -694.36016361784    -5.684E-13 2.403E-23 1.818E-17
 ETOT 33  -694.36016361784     4.547E-13 2.172E-24 4.598E-18
 ETOT 34  -694.36016361784    -3.411E-13 9.078E-25 2.697E-18
 ETOT 35  -694.36016361784     3.411E-13 3.714E-25 7.975E-19
 ETOT 36  -694.36016361784    -3.411E-13 1.026E-25 2.431E-19
 ETOT 37  -694.36016361784     1.137E-13 3.831E-26 1.131E-19
 ETOT 38  -694.36016361784     1.137E-13 1.874E-26 1.594E-20
 ETOT 39  -694.36016361784     4.547E-13 1.564E-27 5.565E-21
 
 At SCF step   39       vres2   =  5.56E-21 < tolvrs=  1.00E-20 =>converged.
 
 Cartesian components of stress tensor (hartree/bohr^3)
  sigma(1 1)=  5.58890418E-06  sigma(3 2)= -3.96226749E-07
  sigma(2 2)=  4.63777621E-06  sigma(3 1)= -1.94681718E-07
  sigma(3 3)=  5.66206754E-06  sigma(2 1)= -2.13956927E-08
 

--- !ResultsGS
iteration_state: {dtset: 1, itime: 3, icycle: 1, }
comment   : Summary of ground state results
lattice_vectors:
- [ 13.3199959,   0.0003924,  -0.0086084, ]
- [  0.0006385,  13.5782280,  -0.6765806, ]
- [ -0.0086955,  -0.7014747,  13.5706478, ]
lattice_lengths: [  13.32000,   13.59507,   13.58877, ]
lattice_angles: [ 95.812,  90.074,  89.994, ] # degrees, (23, 13, 12)
lattice_volume:   2.4480910E+03
convergence: {deltae:  4.547E-13, res2:  5.565E-21, residm:  1.564E-27, diffor: null, }
etotal    :  -6.94360164E+02
entropy   :   0.00000000E+00
fermie    :   1.18320969E-01
cartesian_stress_tensor: # hartree/bohr^3
- [  5.58890418E-06,  -2.13956927E-08,  -1.94681718E-07, ]
- [ -2.13956927E-08,   4.63777621E-06,  -3.96226749E-07, ]
- [ -1.94681718E-07,  -3.96226749E-07,   5.66206754E-06, ]
pressure_GPa:  -1.5582E-01
xred      :
- [  8.7553E-01,   8.3643E-01,   8.9594E-01, La]
- [  3.7522E-01,   6.6420E-01,   1.0483E-01, La]
- [  1.2858E-01,   3.7466E-01,   6.7983E-01, La]
- [  6.2960E-01,   1.2794E-01,   3.1919E-01, La]
- [  1.6831E-01,   2.0468E-01,   2.0303E-01, Mo]
- [  6.6829E-01,   2.9585E-01,   7.9655E-01, Mo]
- [  8.3861E-01,   6.2033E-01,   3.1107E-01, Mo]
- [  3.3931E-01,   8.7961E-01,   6.8908E-01, Mo]
- [  3.1642E-01,   2.8558E-01,   4.0240E-01,  O]
- [  8.1695E-01,   2.1575E-01,   5.9781E-01,  O]
- [  6.8071E-01,   8.0634E-01,   1.9711E-01,  O]
- [  1.8065E-01,   6.9459E-01,   8.0546E-01,  O]
- [  9.5563E-01,   7.2161E-02,   1.9950E-01,  O]
- [  4.5528E-01,   4.2717E-01,   7.9754E-01,  O]
- [  2.5307E-02,   6.9976E-01,   1.5955E-01,  O]
- [  5.2561E-01,   8.0030E-01,   8.4202E-01,  O]
- [  3.3094E-01,   1.0149E+00,   1.3680E-01,  O]
- [  1.3448E-01,   3.7046E-02,   7.4794E-01,  O]
- [  8.3026E-01,   4.8551E-01,   8.6476E-01,  O]
- [  6.3320E-01,   4.6332E-01,   2.5089E-01,  O]
- [  1.8943E-01,   3.5624E-01,   1.0257E+00,  O]
- [  8.3874E-01,   7.2910E-01,   5.4079E-01,  O]
- [  3.3709E-01,   7.6706E-01,   4.6089E-01,  O]
- [  6.8817E-01,   1.4358E-01,  -2.6471E-02,  O]
- [  9.9303E-01,   4.1574E-01,   3.5497E-01,  O]
- [  4.9466E-01,   1.0821E+00,   6.4286E-01,  O]
cartesian_forces: # hartree/bohr
- [  3.89719936E-07,  -5.86976795E-05,  -4.77364728E-04, ]
- [ -6.41505410E-06,   6.75702044E-05,   4.33570090E-04, ]
- [  9.30904099E-05,  -6.23495912E-05,   1.38320786E-04, ]
- [  4.20834687E-05,  -3.73967941E-05,  -1.11444670E-04, ]
- [  1.16616417E-04,   5.71289125E-05,   5.28674931E-04, ]
- [  1.25973878E-04,   1.83427845E-05,  -4.86970760E-04, ]
- [  2.34490186E-04,  -3.07291400E-04,   1.73313858E-04, ]
- [  2.50423249E-04,   2.42351159E-04,  -1.63204555E-04, ]
- [ -2.28802629E-04,  -1.56971327E-04,  -5.61476596E-04, ]
- [ -3.18789523E-04,   2.09052688E-04,   6.15976205E-04, ]
- [  3.38618803E-05,  -3.70980580E-04,  -1.20370102E-04, ]
- [  3.41043598E-05,   3.35732561E-04,   5.74205502E-05, ]
- [  5.21654629E-04,   3.95390758E-04,  -3.67269814E-04, ]
- [  5.51956739E-04,  -3.49207517E-04,   4.34010476E-04, ]
- [  2.42912309E-05,   2.77338782E-05,   7.01000102E-04, ]
- [ -1.53007407E-05,  -6.95221101E-05,  -7.26638341E-04, ]
- [ -2.16542667E-05,   7.31273210E-04,  -1.49889248E-04, ]
- [ -1.74425989E-04,  -1.32965086E-04,   2.06348285E-04, ]
- [ -7.42878623E-05,  -6.34684191E-04,   1.94086880E-04, ]
- [ -8.76448838E-05,   9.96227579E-06,  -2.47823273E-04, ]
- [ -1.44533447E-04,   4.43138112E-04,   5.03733558E-04, ]
- [ -1.00000562E-04,  -2.09433102E-04,  -6.08829628E-04, ]
- [ -3.28685784E-05,   2.29518073E-04,   5.66853583E-04, ]
- [ -8.26004965E-05,  -4.54455041E-04,  -5.91753148E-04, ]
- [ -3.10640498E-04,   3.99791982E-05,  -2.80218647E-04, ]
- [ -4.30971634E-04,   3.67806055E-05,   3.39944205E-04, ]
force_length_stats: {min:   1.24857731E-04, max:   7.84198460E-04, mean:   5.30014571E-04, }
...

 Integrated electronic density in atomic spheres:
 ------------------------------------------------
 Atom  Sphere_radius  Integrated_density
    1        2.51647          7.85736320
    2        2.51647          7.85579847
    3        2.51647          7.87636742
    4        2.51647          7.87825707
    5        2.20000         11.47871236
    6        2.20000         11.47600146
    7        2.20000         11.34818714
    8        2.20000         11.36008646
    9        1.41465          4.55401246
   10        1.41465          4.56469133
   11        1.41465          4.56624288
   12        1.41465          4.55481337
   13        1.41465          4.56615912
   14        1.41465          4.56354916
   15        1.41465          4.56568168
   16        1.41465          4.54664625
   17        1.41465          4.54916136
   18        1.41465          4.54136665
   19        1.41465          4.54895698
   20        1.41465          4.54357008
   21        1.41465          4.55652277
   22        1.41465          4.53697343
   23        1.41465          4.53774819
   24        1.41465          4.57116620
   25        1.41465          4.54894014
   26        1.41465          4.56358293
 
 PAW TEST:
 ==== Compensation charge inside spheres ============
 The following values must be close to each other ...
 Compensation charge over spherical meshes =     21.035456777728712
 Compensation charge over fft grid         =     21.035432604787971
 
 ==== Results concerning PAW augmentation regions ====
 
 Total pseudopotential strength Dij (hartree):
 Atom #  1
   0.47288  -0.11719   0.00087  -0.00055  -0.00029   0.00006  -0.00003  -0.00001   0.00000  -0.00001  -0.00000  -0.00000 ...
  -0.11719   0.02308  -0.00016   0.00010   0.00006   0.00006  -0.00003  -0.00002   0.00001   0.00000   0.00000   0.00001 ...
   0.00087  -0.00016  -0.18091  -0.00002  -0.00003   0.04279   0.00001   0.00014  -0.00010  -0.00015  -0.00014   0.00001 ...
  -0.00055   0.00010  -0.00002  -0.18091  -0.00002   0.00001   0.04264   0.00009   0.00001   0.00024  -0.00019  -0.00009 ...
  -0.00029   0.00006  -0.00003  -0.00002  -0.18088   0.00014   0.00009   0.04239   0.00024   0.00001   0.00005  -0.00015 ...
   0.00006   0.00006   0.04279   0.00001   0.00014   0.32001  -0.00001   0.00003  -0.00004  -0.00006  -0.00005   0.00003 ...
  -0.00003  -0.00003   0.00001   0.04264   0.00009  -0.00001   0.31995   0.00003   0.00003   0.00010  -0.00008  -0.00003 ...
  -0.00001  -0.00002   0.00014   0.00009   0.04239   0.00003   0.00003   0.31991   0.00010   0.00003   0.00000  -0.00003 ...
   0.00000   0.00001  -0.00010   0.00001   0.00024  -0.00004   0.00003   0.00010  -0.05772   0.00000  -0.00001  -0.00000 ...
  -0.00001   0.00000  -0.00015   0.00024   0.00001  -0.00006   0.00010   0.00003   0.00000  -0.05770  -0.00000   0.00001 ...
  -0.00000   0.00000  -0.00014  -0.00019   0.00005  -0.00005  -0.00008   0.00000  -0.00001  -0.00000  -0.05772   0.00000 ...
  -0.00000   0.00001   0.00001  -0.00009  -0.00015   0.00003  -0.00003  -0.00003  -0.00000   0.00001   0.00000  -0.05774 ...
   ...  only 12  components have been written...
 Atom # 26
   0.61712  -1.77012   0.00039  -0.00030   0.00024  -0.00275   0.00219  -0.00171
  -1.77012   5.13571  -0.00098   0.00078  -0.00061   0.00723  -0.00588   0.00451
   0.00039  -0.00098  -0.31117   0.00008  -0.00073   0.97361  -0.00044   0.00381
  -0.00030   0.00078   0.00008  -0.31054   0.00011  -0.00044   0.97032  -0.00058
   0.00024  -0.00061  -0.00073   0.00011  -0.31080   0.00381  -0.00058   0.97170
  -0.00275   0.00723   0.97361  -0.00044   0.00381  -0.30200   0.00216  -0.01902
   0.00219  -0.00588  -0.00044   0.97032  -0.00058   0.00216  -0.28554   0.00295
  -0.00171   0.00451   0.00381  -0.00058   0.97170  -0.01902   0.00295  -0.29240
 
 
 Augmentation waves occupancies Rhoij:
 Atom #  1
   2.02479  -0.08082  -0.00876   0.00453   0.00152   0.00465  -0.00252  -0.00109   0.01039   0.00103   0.00313   0.00532 ...
  -0.08082   0.24533   0.03818  -0.02083  -0.00887  -0.01054   0.00615   0.00362  -0.01992  -0.00444  -0.00769  -0.00862 ...
  -0.00876   0.03818   2.04452   0.00309  -0.00718  -0.02012  -0.00122   0.00424  -0.01461  -0.01827  -0.00688   0.01350 ...
   0.00453  -0.02083   0.00309   2.04506  -0.00477  -0.00122  -0.02110   0.00267   0.01306   0.03417  -0.02866  -0.01342 ...
   0.00152  -0.00887  -0.00718  -0.00477   2.05676   0.00425   0.00268  -0.02835   0.03379   0.01417  -0.00348   0.00159 ...
   0.00465  -0.01054  -0.02012  -0.00122   0.00425   0.01408   0.00018  -0.00183   0.00460   0.00423   0.00069  -0.00360 ...
  -0.00252   0.00615  -0.00122  -0.02110   0.00268   0.00018   0.01384  -0.00097  -0.00341  -0.00899   0.00825   0.00379 ...
  -0.00109   0.00362   0.00424   0.00267  -0.02835  -0.00183  -0.00097   0.01710  -0.00931  -0.00383   0.00087  -0.00135 ...
   0.01039  -0.01992  -0.01461   0.01306   0.03379   0.00460  -0.00341  -0.00931   0.10924  -0.00603   0.00949  -0.00415 ...
   0.00103  -0.00444  -0.01827   0.03417   0.01417   0.00423  -0.00899  -0.00383  -0.00603   0.08699  -0.00927  -0.00804 ...
   0.00313  -0.00769  -0.00688  -0.02866  -0.00348   0.00069   0.00825   0.00087   0.00949  -0.00927   0.10494   0.00835 ...
   0.00532  -0.00862   0.01350  -0.01342   0.00159  -0.00360   0.00379  -0.00135  -0.00415  -0.00804   0.00835   0.10597 ...
   ...  only 12  components have been written...
 Atom # 26
   1.99349   0.03101  -0.01235  -0.00345  -0.00632  -0.00264   0.00130  -0.00152
   0.03101   0.00118  -0.00548   0.00431  -0.00333  -0.00024   0.00015  -0.00016
  -0.01235  -0.00548   1.76038   0.00059   0.03380   0.03407   0.00020   0.00688
  -0.00345   0.00431   0.00059   1.74042  -0.00040   0.00019   0.02941  -0.00064
  -0.00632  -0.00333   0.03380  -0.00040   1.74805   0.00687  -0.00064   0.03053
  -0.00264  -0.00024   0.03407   0.00019   0.00687   0.00091  -0.00002   0.00033
   0.00130   0.00015   0.00020   0.02941  -0.00064  -0.00002   0.00064  -0.00004
  -0.00152  -0.00016   0.00688  -0.00064   0.03053   0.00033  -0.00004   0.00075
 
 
 
---OUTPUT-----------------------------------------------------------------------
 
 Cartesian coordinates (xcart) [bohr]
  1.16547975231508E+01  1.07290665059321E+01  1.15850284284332E+01
  4.99750742679795E+00  8.94532694360647E+00  9.70048918776596E-01
  1.70698428822081E+00  4.61035725636966E+00  8.97118113065794E+00
  8.38351200603805E+00  1.51359497709238E+00  4.23959156916753E+00
  2.24022135246967E+00  2.63678910438016E+00  2.61536307357206E+00
  8.89481700508230E+00  3.45859387239182E+00  1.06038359194018E+01
  1.11679739860411E+01  8.20508887738607E+00  3.79443729532655E+00
  4.51416927302831E+00  1.14603638058660E+01  8.75325455805719E+00
  4.21138523743609E+00  3.59551787829182E+00  5.26484174840769E+00
  1.08767655920511E+01  2.51047517306930E+00  7.95962645842513E+00
  9.06589482468388E+00  1.08107061989239E+01  2.12343795545173E+00
  2.39966225736479E+00  8.86638972347857E+00  1.04590471008156E+01
  1.27273544401424E+01  8.40249034992204E-01  2.65035910343458E+00
  6.05759970386399E+00  5.24086938725944E+00  1.05302600408865E+01
  3.36142098015182E-01  9.38956634711510E+00  1.69153710061961E+00
  6.99425660221778E+00  1.02761890039856E+01  1.08807774157974E+01
  4.40753191326942E+00  1.36853625833019E+01  1.16691111316203E+00
  1.78477988634224E+00 -2.15902985393631E-02  1.01237922481175E+01
  1.10518690872601E+01  5.98601955021408E+00  1.13997321334048E+01
  8.43237061208368E+00  6.11529922579205E+00  3.08575195050374E+00
  2.51445424763065E+00  4.11767457271075E+00  1.36762666625519E+01
  1.11678295408865E+01  9.52085025263313E+00  6.83830610798142E+00
  4.48647983998100E+00  1.00921894664406E+01  5.73269998409158E+00
  9.16676989358398E+00  1.96839991095903E+00 -4.62300069402218E-01
  1.32243785327739E+01  5.39643265916672E+00  4.52732991704577E+00
  6.58401536949590E+00  1.42424014624447E+01  7.98768285942320E+00
 Reduced coordinates (xred)
  8.75529859543268E-01  8.36427384766740E-01  8.95939238463140E-01
  3.75224960855535E-01  6.64204357973165E-01  1.04834109430066E-01
  1.28577859194197E-01  3.74658055001811E-01  6.79833010836331E-01
  6.29595226072641E-01  1.27943766534460E-01  3.19187093199005E-01
  1.68307570471159E-01  2.04676614352557E-01  2.03033207771435E-01
  6.68285082793996E-01  2.95848190214098E-01  7.96554009027190E-01
  8.38610079073471E-01  6.20328687696982E-01  3.11065379837730E-01
  3.39309382044464E-01  8.79614420086843E-01  6.89083207620167E-01
  3.16419162444983E-01  2.85579592244194E-01  4.02396650071327E-01
  8.16954162753921E-01  2.15749897597851E-01  5.97807224317424E-01
  6.80712968175270E-01  8.06342615250213E-01  1.97105811875958E-01
  1.80647398037250E-01  6.94591765664635E-01  8.05455248820443E-01
  9.55634167923247E-01  7.21612284870716E-02  1.99504730689994E-01
  4.55275066392380E-01  4.27165300438925E-01  7.97544165480498E-01
  2.53065150791763E-02  6.99758228509029E-01  1.59550069099628E-01
  5.25605824277419E-01  8.00298769082588E-01  8.42020868741058E-01
  3.30936545650474E-01  1.01494789666525E+00  1.36799217189172E-01
  1.34479015134382E-01  3.70458594811624E-02  7.47938827716718E-01
  8.30261415363740E-01  4.85505293741316E-01  8.64760692764392E-01
  6.33202626251510E-01  4.63318220273313E-01  2.50885216346849E-01
  1.89425392115144E-01  3.56237752547171E-01  1.02566370230257E+00
  8.38743986126163E-01  7.29098752867443E-01  5.40786298785950E-01
  3.37087022691963E-01  7.67063288481765E-01  4.60890444486266E-01
  6.88171988777926E-01  1.43579925009176E-01 -2.64712967832137E-02
  9.93033320616203E-01  4.15742388689895E-01  3.54969166877514E-01
  4.94663402096153E-01  1.08211174834533E+00  6.42863705036419E-01
 Cartesian forces (fcart) [Ha/bohr]; max,rms= 7.31273E-04 3.24571E-04 (free atoms)
  3.89719936454994E-07 -5.86976794839262E-05 -4.77364728492623E-04
 -6.41505410034120E-06  6.75702043952213E-05  4.33570090477807E-04
  9.30904098511266E-05 -6.23495912126193E-05  1.38320786374178E-04
  4.20834686677249E-05 -3.73967941355247E-05 -1.11444670173951E-04
  1.16616417187067E-04  5.71289125474281E-05  5.28674931030385E-04
  1.25973877507922E-04  1.83427845151521E-05 -4.86970760046087E-04
  2.34490185819249E-04 -3.07291399623135E-04  1.73313857730886E-04
  2.50423248666743E-04  2.42351158539151E-04 -1.63204554704024E-04
 -2.28802629447578E-04 -1.56971326613199E-04 -5.61476595739834E-04
 -3.18789523229659E-04  2.09052687582972E-04  6.15976204817177E-04
  3.38618802530667E-05 -3.70980580451960E-04 -1.20370101894981E-04
  3.41043598157054E-05  3.35732560513827E-04  5.74205502069351E-05
  5.21654628946011E-04  3.95390758333161E-04 -3.67269813619264E-04
  5.51956738744674E-04 -3.49207517093327E-04  4.34010476002861E-04
  2.42912308508711E-05  2.77338782283685E-05  7.01000101693297E-04
 -1.53007407216147E-05 -6.95221101193573E-05 -7.26638341163235E-04
 -2.16542667399430E-05  7.31273209670139E-04 -1.49889248362318E-04
 -1.74425989016430E-04 -1.32965085836302E-04  2.06348284821454E-04
 -7.42878623402437E-05 -6.34684191129978E-04  1.94086880389505E-04
 -8.76448838057981E-05  9.96227578501617E-06 -2.47823272987524E-04
 -1.44533447480354E-04  4.43138112370678E-04  5.03733558476619E-04
 -1.00000562271514E-04 -2.09433102402546E-04 -6.08829627840819E-04
 -3.28685784137097E-05  2.29518073045011E-04  5.66853582768617E-04
 -8.26004964718354E-05 -4.54455041155404E-04 -5.91753147858701E-04
 -3.10640498077155E-04  3.99791982076713E-05 -2.80218646581584E-04
 -4.30971634130441E-04  3.67806055234817E-05  3.39944204675222E-04
 Reduced forces (fred)
 -9.27736454974669E-06  4.74034508926989E-04  6.43697704911110E-03
  8.91543094608248E-05 -6.24134430496239E-04 -5.83648398255989E-03
 -1.23874869507831E-03  9.40122688211902E-04 -1.92002987078976E-03
 -5.61496311101246E-04  4.32354024548984E-04  1.48650939743112E-03
 -1.54880158488219E-03 -4.18092653019759E-04 -7.13337276113236E-03
 -1.68217074256801E-03 -5.78617913811299E-04  6.62247107403854E-03
 -3.12179578727286E-03  4.28958375668369E-03 -2.56549946692298E-03
 -3.33713664626961E-03 -3.40128021111424E-03  2.38697229572601E-03
  3.04287827271439E-03  1.75165437304018E-03  7.50750015575068E-03
  4.25149564940290E-03 -2.42160395641157E-03 -8.21532297638584E-03
 -4.51930736643566E-04  4.95579720203599E-03  1.37356120010656E-03
 -4.53907361944825E-04 -4.51982539270850E-03 -5.43429601266899E-04
 -6.95175422093351E-03 -5.61752656174021E-03  5.26598195200974E-03
 -7.34818834038074E-03  5.03490993268395E-03 -6.12996402576792E-03
 -3.17535515129291E-04  9.76906411374108E-05 -9.49335964422940E-03
  1.97577916622034E-04  4.52367422621895E-04  9.81205195004860E-03
  2.86857522059182E-04 -1.00307926910713E-02  2.54687558148449E-03
  2.32518194092416E-03  1.94515286540570E-03 -2.89506826258721E-03
  9.91433811353195E-04  8.74924949515500E-03 -3.07974558658205E-03
  1.16529222853915E-03 -3.02886511352867E-04  3.36934852257065E-03
  1.92934737229661E-03 -5.67612167961678E-03 -6.52639730384696E-03
  1.32684822355625E-03  2.43187194344824E-03  8.11443086277135E-03
  4.42598954386870E-04 -2.73290559642076E-03 -7.53185500165889E-03
  1.09532255593106E-03  5.77037819411161E-03  7.71096657073227E-03
  4.13530223814761E-03 -7.32238828730168E-04  3.82809178518520E-03
  5.74345231135967E-03 -2.69140621517851E-04 -4.59120991323616E-03
 Total energy (etotal) [Ha]= -6.94360163617836E+02
 
 Difference of energy with previous step (new-old):
           Absolute (Ha)=-2.80196E-05
           Relative     =-4.03532E-08
 
--- Iteration: (  4/250) Internal Cycle: (1/1)
--------------------------------------------------------------------------------
 
---SELF-CONSISTENT-FIELD CONVERGENCE--------------------------------------------

--- !BeginCycle
iteration_state: {dtset: 1, itime: 4, icycle: 1, }
solver: {iscf: 7, nstep: 100, nline: 4, wfoptalg: 114, }
tolerances: {tolvrs: 1.00E-20, }
...
 
     iter   Etot(hartree)      deltaE(h)  residm     vres2
 ETOT  1  -694.36017340929    -6.944E+02 8.804E-11 9.578E-03
 ETOT  2  -694.36017372905    -3.198E-07 6.801E-12 2.604E-03
 ETOT  3  -694.36017386855    -1.395E-07 8.193E-10 1.494E-03
 ETOT  4  -694.36017415021    -2.817E-07 1.599E-10 2.410E-04
 ETOT  5  -694.36017421147    -6.126E-08 5.308E-11 7.541E-05
 ETOT  6  -694.36017422398    -1.251E-08 1.891E-11 2.755E-06
 ETOT  7  -694.36017422520    -1.220E-09 7.369E-13 1.695E-06
 ETOT  8  -694.36017422547    -2.666E-10 1.974E-13 3.496E-07
[...]
     3        0.001543003037     -0.001814190829      0.001586151986
     4        0.000910984688      0.000284630672     -0.001173968458
     5        0.000393218263      0.000773789106     -0.000393715378
     6        0.000381921259     -0.000552776755      0.000874799473
     7       -0.000225901851     -0.000867781978     -0.000493749773
     8       -0.000695327928      0.000772769389      0.000159682774
     9       -0.000102907461      0.000855026854      0.000008171136
    10       -0.000870004318     -0.000701458569     -0.000068172254
    11        0.000050116964     -0.000366131422     -0.001049163886
    12       -0.000062284158     -0.000327438016     -0.000428747456
    13        0.000664112071     -0.000043237274     -0.001779344972
    14        0.000839576626      0.000902634690      0.003515926451
    15        0.000909416042      0.000391045427      0.002157982747
    16        0.000567716619     -0.000377552026     -0.002852004371
    17        0.001855316898      0.001975066626     -0.001476694732
    18       -0.002031051002     -0.000212303575      0.002261913252
    19        0.002333305474     -0.002061170851      0.001558991603
    20       -0.000818322695     -0.000582360145     -0.002194785768
    21       -0.000254419375      0.002933391871      0.001475188498
    22       -0.001664771002     -0.000597162906     -0.000639826423
    23       -0.000583123537      0.001760101829     -0.000236319167
    24        0.000251159636     -0.003097082124     -0.001431359465
    25       -0.001423670719     -0.001543736772      0.000208394372
    26       -0.002946918631      0.002838958160      0.000905933612
 
 Cartesian components of stress tensor (hartree/bohr^3)
  sigma(1 1)=  4.44540872E-06  sigma(3 2)=  1.78234429E-06
  sigma(2 2)=  3.41560562E-06  sigma(3 1)= -9.11168488E-07
  sigma(3 3)=  2.38065337E-06  sigma(2 1)=  1.46583650E-07
 
-Cartesian components of stress tensor (GPa)         [Pressure= -1.0044E-01 GPa]
- sigma(1 1)=  1.30788418E-01  sigma(3 2)=  5.24383706E-02
- sigma(2 2)=  1.00490570E-01  sigma(3 1)= -2.68074979E-02
- sigma(3 3)=  7.00412286E-02  sigma(2 1)=  4.31263916E-03
 
== END DATASET(S) ==============================================================
================================================================================
  
 -outvars: echo values of variables after computation  --------
-          iomode           1
            acell      1.0000000000E+00  1.0000000000E+00  1.0000000000E+00 Bohr
              amu      1.38905500E+02  9.59400000E+01  1.59994000E+01
        autoparal           1
           bandpp          26
     densfor_pred           6
           diemac      4.00000000E+00
          dilatmx      1.04000000E+00
             ecut      3.00000000E+01 Hartree
           ecutsm      5.00000000E-01 Hartree
           etotal1    -6.9436028672E+02
            fcart1    -4.9738941976E-11 -2.6089803989E-11 -4.2536401545E-12
                      -1.4699095992E-11  7.2510487791E-12  2.7079955307E-11
                      -7.4133147876E-12 -9.3809444593E-11  2.1125243422E-12
                      -9.3531513440E-12 -1.5373333955E-11 -4.7032853422E-11
                      -1.0089590635E-12  1.4433212887E-11  1.8684349409E-11
                       7.1669873676E-12  2.8638357843E-11 -1.9494997360E-11
                       3.6406508322E-11 -1.3157005439E-11  8.0410924840E-12
                       3.9221256132E-11 -6.4951298218E-11  9.0702613394E-13
                       7.2341033927E-11  5.1580275588E-11  4.4811837063E-12
                       5.0730382067E-11  2.2706554907E-11 -2.3129113663E-11
                      -4.6600530990E-11  5.2377649221E-11  2.3859643201E-11
                      -4.9647017996E-12  5.0305828096E-11  7.9136090398E-12
                       8.8446119054E-12 -8.3366721026E-11 -1.4113957591E-11
                      -7.4981251615E-11 -3.2818937967E-11 -3.3250263931E-11
                      -3.7248369746E-11  4.8646966269E-11  5.9663011497E-12
                       2.9452933087E-11  6.9833828610E-12  3.2543133062E-11
                       1.7520986167E-11 -1.9494437613E-11  7.0626586546E-11
                       2.6573638032E-11  7.0791270862E-13  6.2194434309E-14
                       5.4437446270E-11  6.4841156434E-11  1.1137310933E-11
                      -1.3879154851E-12  1.4012805512E-12 -3.4964994022E-11
                      -2.9906953812E-11  4.3133511165E-11 -3.6063756555E-11
                      -7.6233124407E-11  1.9378246176E-12 -1.9376320380E-11
                       2.7975097316E-11  3.8206616224E-12 -2.4393642002E-11
                      -3.5524215026E-11 -2.4333236087E-11  4.9641793531E-12
                       3.3022687090E-11 -3.3727051177E-11  5.8572723058E-11
                      -1.4633041618E-11  8.3556465080E-12 -2.0878273077E-11
-          fftalg         401
           ionmov           2
             iscf           7
              ixc     -116133
           jdtset        1
              kpt      2.50000000E-01  2.50000000E-01  2.50000000E-01
                      -2.50000000E-01  2.50000000E-01  2.50000000E-01
                       2.50000000E-01 -2.50000000E-01  2.50000000E-01
                      -2.50000000E-01 -2.50000000E-01  2.50000000E-01
         kptrlatt        2    0    0      0    2    0      0    0    2
          kptrlen      2.66399973E+01
P           mkmem           1
            natom          26
            nband         104
           ndtset           1
            ngfft          72      75      75
          ngfftdg          72      75      75
             nkpt           4
-           npfft          15
-           npkpt           4
            nstep         100
             nsym           1
            ntime         250
           ntypat           3
              occ      2.000000  2.000000  2.000000  2.000000  2.000000  2.000000
                       2.000000  2.000000  2.000000  2.000000  2.000000  2.000000
                       2.000000  2.000000  2.000000  2.000000  2.000000  2.000000
                       2.000000  2.000000  2.000000  2.000000  2.000000  2.000000
                       2.000000  2.000000  2.000000  2.000000  2.000000  2.000000
                       2.000000  2.000000  2.000000  2.000000  2.000000  2.000000
                       2.000000  2.000000  2.000000  2.000000  2.000000  2.000000
                       2.000000  2.000000  2.000000  2.000000  2.000000  2.000000
                       2.000000  2.000000  2.000000  2.000000  2.000000  2.000000
                       2.000000  2.000000  2.000000  2.000000  2.000000  2.000000
                       2.000000  2.000000  2.000000  2.000000  2.000000  2.000000
                       2.000000  2.000000  2.000000  2.000000  2.000000  2.000000
                       2.000000  2.000000  2.000000  2.000000  2.000000  2.000000
                       2.000000  2.000000  2.000000  2.000000  2.000000  2.000000
                       2.000000  2.000000  2.000000  2.000000  2.000000  2.000000
                       2.000000  2.000000  2.000000  2.000000  2.000000  2.000000
                       2.000000  2.000000  2.000000  2.000000  2.000000  2.000000
                       2.000000  2.000000
        paral_kgb           1
        pawecutdg      3.00000000E+01 Hartree
         pawmixdg           1
         pawxcdev           0
           prteig           0
            rprim      1.3319995856E+01  3.9235770265E-04 -8.6083592955E-03
                       6.3848818302E-04  1.3578227983E+01 -6.7658060405E-01
                      -8.6954856006E-03 -7.0147473141E-01  1.3570647793E+01
           shiftk      5.00000000E-01  5.00000000E-01  5.00000000E-01
          spgroup           1
           strten1     4.4454087200E-06  3.4156056181E-06  2.3806533743E-06
                       1.7823442880E-06 -9.1116848836E-07  1.4658365032E-07
           tolmxf      1.00000000E-10
           tolvrs      1.00000000E-20
            typat      1  1  1  1  2  2  2  2  3  3  3  3  3  3  3  3  3  3  3  3
                       3  3  3  3  3  3
           useylm           1
         wfoptalg         114
              wtk        0.25000    0.25000    0.25000    0.25000
           xangst      6.1709093380E+00  5.6694971208E+00  6.1261926152E+00
                       2.6482551770E+00  4.7394380927E+00  5.1429277668E-01
                       9.1325309401E-01  2.4256245483E+00  4.7577795180E+00
                       4.4421369977E+00  8.0433224411E-01  2.2364960007E+00
                       1.1885209369E+00  1.3998498303E+00  1.3814715748E+00
                       4.7098920762E+00  1.8266867736E+00  5.6170368578E+00
                       5.9090408657E+00  4.3360363651E+00  2.0055752714E+00
                       2.3846900603E+00  6.0699234175E+00  4.6321509168E+00
                       2.2267670302E+00  1.9080352896E+00  2.7843452859E+00
                       5.7486832207E+00  1.3241033704E+00  4.2130890503E+00
                       4.7987892469E+00  5.7188140870E+00  1.1169103782E+00
                       1.2704786871E+00  4.6896633228E+00  5.5312296573E+00
                       6.7414171563E+00  4.4460950522E-01  1.3902040077E+00
                       3.2133512511E+00  2.7786383851E+00  5.5966675918E+00
                       1.8265014208E-01  4.9707215461E+00  9.0832007727E-01
                       3.7035472042E+00  5.4365896245E+00  5.7396240641E+00
                       2.3435214535E+00  7.2561958128E+00  6.0722696555E-01
                       9.3172258043E-01 -1.3925279846E-02  5.3729372337E+00
                       5.8630267917E+00  3.1523359080E+00  6.0432159696E+00
                       4.4578048042E+00  3.2332440825E+00  1.6181602866E+00
                       1.3292835602E+00  2.1965104915E+00  7.2463300028E+00
                       5.8983402662E+00  5.0337290784E+00  3.6143743368E+00
                       2.3701722031E+00  5.3537658974E+00  3.0313521772E+00
                       4.8528452779E+00  1.0230497201E+00 -2.5314419530E-01
                       6.9870387482E+00  2.8468337583E+00  2.3983235163E+00
                       3.4627883670E+00  7.5542304175E+00  4.2317573934E+00
            xcart      1.1661328640E+01  1.0713796870E+01  1.1576826280E+01
                       5.0044770146E+00  8.9562400189E+00  9.7187250004E-01
                       1.7257982377E+00  4.5837660975E+00  8.9909002897E+00
                       8.3944223705E+00  1.5199676612E+00  4.2263649385E+00
                       2.2459790739E+00  2.6453328065E+00  2.6106029367E+00
                       8.9004061395E+00  3.4519377326E+00  1.0614661339E+01
                       1.1166468944E+01  8.1939212323E+00  3.7899880019E+00
                       4.5064111257E+00  1.1470492907E+01  8.7534966390E+00
                       4.2079798489E+00  3.6056641491E+00  5.2616500498E+00
                       1.0863436912E+01  2.5021927418E+00  7.9615844784E+00
                       9.0683974462E+00  1.0806992429E+01  2.1106547298E+00
                       2.4008567764E+00  8.8621793356E+00  1.0452509230E+01
                       1.2739432173E+01  8.4019020095E-01  2.6271048434E+00
                       6.0723538334E+00  5.2508655701E+00  1.0576169005E+01
                       3.4515874666E-01  9.3933024050E+00  1.7164761870E+00
                       6.9986899361E+00  1.0273665487E+01  1.0846317587E+01
                       4.4286137337E+00  1.3712222853E+01  1.1474926654E+00
                       1.7607005088E+00 -2.6314965233E-02  1.0153379901E+01
                       1.1079514946E+01  5.9570515449E+00  1.1420023144E+01
                       8.4240302338E+00  6.1099458368E+00  3.0578797808E+00
                       2.5119818817E+00  4.1508032769E+00  1.3693579174E+01
                       1.1146247742E+01  9.5123693852E+00  6.8301776383E+00
                       4.4789763517E+00  1.0117151326E+01  5.7284254273E+00
                       9.1705485406E+00  1.9332837914E+00 -4.7837320124E-01
                       1.3203589714E+01  5.3797361491E+00  4.5321746239E+00
                       6.5437216698E+00  1.4275426634E+01  7.9968625343E+00
             xred      8.7601980723E-01  8.3526860984E-01  8.9527737357E-01
                       3.7574827878E-01  6.6501711419E-01  1.0500933918E-01
                       1.2999129653E-01  3.7276989817E-01  6.8119284541E-01
                       6.3041368036E-01  1.2836383061E-01  3.1823390525E-01
                       1.6873959374E-01  2.0528929354E-01  2.0271326056E-01
                       6.6870521547E-01  2.9539803659E-01  7.9732954102E-01
                       8.3849688678E-01  6.1948711471E-01  3.1069548889E-01
                       3.3872693825E-01  8.8036324918E-01  6.8913801048E-01
                       3.1616333758E-01  2.8631658468E-01  4.0219804009E-01
                       8.1595361384E-01  2.1514581293E-01  5.9792075574E-01
                       6.8090024284E-01  8.0601961077E-01  1.9614785082E-01
                       1.8073676737E-01  6.9425592842E-01  8.0495679641E-01
                       9.5653978807E-01  7.2068133238E-02  1.9778709341E-01
                       4.5638492897E-01  4.2807861872E-01  8.0097336448E-01
                       2.5984635127E-02  7.0012927738E-01  1.6140672095E-01
                       5.2593700459E-01  7.9998091728E-01  8.3946594057E-01
                       3.3251830255E-01  1.0168570833E+00  1.3546448998E-01
                       1.3267267969E-01  3.6809922212E-02  7.5010618723E-01
                       8.3233793961E-01  4.8344382170E-01  8.6615444602E-01
                       6.3257513820E-01  4.6281655721E-01  2.4880595032E-01
                       1.8924057308E-01  3.5874996899E-01  1.0270645667E+00
                       8.3712334886E-01  7.2844151663E-01  5.4015352914E-01
                       3.3652346360E-01  7.6889009267E-01  4.6066617900E-01
                       6.8845493884E-01  1.4092569352E-01 -2.7787851300E-02
                       9.9147284909E-01  4.1452804500E-01  3.5526463342E-01
                       4.9163875089E-01  1.0845852685E+00  6.4366154266E-01
            znucl       57.00000   42.00000    8.00000
 
================================================================================


- Timing analysis has been suppressed with timopt=0



================================================================================

 Suggested references for the acknowledgment of ABINIT usage.

 The users of ABINIT have little formal obligations with respect to the ABINIT group
 (those specified in the GNU General Public License, http://www.gnu.org/copyleft/gpl.txt).
 However, it is common practice in the scientific literature,
 to acknowledge the efforts of people that have made the research possible.
 In this spirit, please find below suggested citations of work written by ABINIT developers,
 corresponding to implementations inside of ABINIT that you have used in the present run.
 Note also that it will be of great value to readers of publications presenting these results,
 to read papers enabling them to understand the theoretical formalism and details
 of the ABINIT implementation.
 For information on why they are suggested, see also https://docs.abinit.org/theory/acknowledgments.
-
- [1] Implementation of the Projector Augmented-Wave Method in the ABINIT code.
- M. Torrent, F. Jollet, F. Bottin, G. Zerah, and X. Gonze Comput. Mat. Science 42, 337, (2008).
- Comment: PAW calculations. Strong suggestion to cite this paper.
- DOI and bibtex: see https://docs.abinit.org/theory/bibliography/#torrent2008
-
- [2] Libxc: A library of exchange and correlation functionals for density functional theory.
- M.A.L. Marques, M.J.T. Oliveira, T. Burnus, Computer Physics Communications 183, 2227 (2012).
- Comment: to be cited when LibXC is used (negative value of ixc)
- Strong suggestion to cite this paper.
- DOI and bibtex: see https://docs.abinit.org/theory/bibliography/#marques2012
-
- [3] Large scale ab initio calculations based on three levels of parallelization
- F. Bottin, S. Leroux, A. Knyazev, G. Zerah, Comput. Mat. Science 42, 329, (2008).
- Comment: in case LOBPCG algorithm is used (wfoptalg=4/14/114).
- Strong suggestion to cite this paper in your publications.
- This paper is also available at http://www.arxiv.org/abs/0707.3405
- DOI and bibtex: see https://docs.abinit.org/theory/bibliography/#bottin2008
-
- [4] The Abinit project: Impact, environment and recent developments.
- Computer Phys. Comm. 248, 107042 (2020).
- X.Gonze, B. Amadon, G. Antonius, F.Arnardi, L.Baguet, J.-M.Beuken,
- J.Bieder, F.Bottin, J.Bouchet, E.Bousquet, N.Brouwer, F.Bruneval,
- G.Brunin, T.Cavignac, J.-B. Charraud, Wei Chen, M.Cote, S.Cottenier,
- J.Denier, G.Geneste, Ph.Ghosez, M.Giantomassi, Y.Gillet, O.Gingras,
- D.R.Hamann, G.Hautier, Xu He, N.Helbig, N.Holzwarth, Y.Jia, F.Jollet,
- W.Lafargue-Dit-Hauret, K.Lejaeghere, M.A.L.Marques, A.Martin, C.Martins,
- H.P.C. Miranda, F.Naccarato, K. Persson, G.Petretto, V.Planes, Y.Pouillon,
- S.Prokhorenko, F.Ricci, G.-M.Rignanese, A.H.Romero, M.M.Schmitt, M.Torrent,
- M.J.van Setten, B.Van Troeye, M.J.Verstraete, G.Zerah and J.W.Zwanzig
- Comment: the fifth generic paper describing the ABINIT project.
- Note that a version of this paper, that is not formatted for Computer Phys. Comm. 
- is available at https://www.abinit.org/sites/default/files/ABINIT20.pdf .
- The licence allows the authors to put it on the Web.
- DOI and bibtex: see https://docs.abinit.org/theory/bibliography/#gonze2020
-
- [5] ABINIT: Overview, and focus on selected capabilities
- J. Chem. Phys. 152, 124102 (2020).
- A. Romero, D.C. Allan, B. Amadon, G. Antonius, T. Applencourt, L.Baguet,
- J.Bieder, F.Bottin, J.Bouchet, E.Bousquet, F.Bruneval,
- G.Brunin, D.Caliste, M.Cote,
- J.Denier, C. Dreyer, Ph.Ghosez, M.Giantomassi, Y.Gillet, O.Gingras,
- D.R.Hamann, G.Hautier, F.Jollet, G. Jomard,
- A.Martin, 
- H.P.C. Miranda, F.Naccarato, G.Petretto, N.A. Pike, V.Planes,
- S.Prokhorenko, T. Rangel, F.Ricci, G.-M.Rignanese, M.Royo, M.Stengel, M.Torrent,
- M.J.van Setten, B.Van Troeye, M.J.Verstraete, J.Wiktor, J.W.Zwanziger, and X.Gonze.
- Comment: a global overview of ABINIT, with focus on selected capabilities .
- Note that a version of this paper, that is not formatted for J. Chem. Phys 
- is available at https://www.abinit.org/sites/default/files/ABINIT20_JPC.pdf .
- The licence allows the authors to put it on the Web.
- DOI and bibtex: see https://docs.abinit.org/theory/bibliography/#romero2020
-
- [6] Recent developments in the ABINIT software package.
- Computer Phys. Comm. 205, 106 (2016).
- X.Gonze, F.Jollet, F.Abreu Araujo, D.Adams, B.Amadon, T.Applencourt,
- C.Audouze, J.-M.Beuken, J.Bieder, A.Bokhanchuk, E.Bousquet, F.Bruneval
- D.Caliste, M.Cote, F.Dahm, F.Da Pieve, M.Delaveau, M.Di Gennaro,
- B.Dorado, C.Espejo, G.Geneste, L.Genovese, A.Gerossier, M.Giantomassi,
- Y.Gillet, D.R.Hamann, L.He, G.Jomard, J.Laflamme Janssen, S.Le Roux,
- A.Levitt, A.Lherbier, F.Liu, I.Lukacevic, A.Martin, C.Martins,
- M.J.T.Oliveira, S.Ponce, Y.Pouillon, T.Rangel, G.-M.Rignanese,
- A.H.Romero, B.Rousseau, O.Rubel, A.A.Shukri, M.Stankovski, M.Torrent,
- M.J.Van Setten, B.Van Troeye, M.J.Verstraete, D.Waroquier, J.Wiktor,
- B.Xu, A.Zhou, J.W.Zwanziger.
- Comment: the fourth generic paper describing the ABINIT project.
- Note that a version of this paper, that is not formatted for Computer Phys. Comm. 
- is available at https://www.abinit.org/sites/default/files/ABINIT16.pdf .
- The licence allows the authors to put it on the Web.
- DOI and bibtex: see https://docs.abinit.org/theory/bibliography/#gonze2016
-
- Proc.   0 individual time (sec): cpu=      27583.4  wall=      28152.5
 
================================================================================
 
 Calculation completed.
.Delivered   0 WARNINGs and   0 COMMENTs to log file.
+Overall time at end (sec) : cpu=    1680061.1  wall=    1689142.4
