
.Version 9.3.2 of ABINIT 
.(MPI version, prepared for a x86_64_linux_intel19.1 computer) 

.Copyright (C) 1998-2020 ABINIT group . 
 ABINIT comes with ABSOLUTELY NO WARRANTY.
 It is free software, and you are welcome to redistribute it
 under certain conditions (GNU General Public License,
 see ~abinit/COPYING or http://www.gnu.org/copyleft/gpl.txt).

 ABINIT is a project of the Universite Catholique de Louvain,
 Corning Inc. and other collaborators, see ~abinit/doc/developers/contributors.txt .
 Please read https://docs.abinit.org/theory/acknowledgments for suggested
 acknowledgments of the ABINIT effort.
 For more information, see https://www.abinit.org .

.Starting date : Wed 14 Jul 2021.
- ( at 23h47 )
  
- input  file    -> abi.in
- output file    -> abi.out
- root for input  files -> abi-i
- root for output files -> abi-o
 
- inpspheads : Reading pseudopotential header in XML form from 
-   ~/ABINIT_PAW_PBE/paw_pbe_standard/La.xml
- inpspheads : Reading pseudopotential header in XML form from 
-   ~/ABINIT_PAW_PBE/paw_pbe_standard/Mo.xml
- inpspheads : Reading pseudopotential header in XML form from 
-   ~/ABINIT_PAW_PBE/paw_pbe_standard/O.xml
 
 DATASET    1 : space group P2_1 (#  4); Bravais mP (primitive monocl.)
================================================================================
 Values of the parameters that define the memory need for DATASET  1.
     intxc =       0    ionmov =       2      iscf =       7    lmnmax =      32
     lnmax =       8     mgfft =      75  mpssoang =       4    mqgrid =    3519
     natom =      26  nloc_mem =       2    nspden =       1   nspinor =       1
    nsppol =       1      nsym =       2    n1xccc =       1    ntypat =       3
    occopt =       1   xclevel =       2
-    mband =         104        mffmem =           1         mkmem =           1
       mpw =         712          nfft =       27000          nkpt =           2
Pmy_natom=         7
 PAW method is used; the additional fine FFT grid is defined by:
   mgfftf=        75    nfftf =     27000
================================================================================
P This job should need less than                      36.353 Mbytes of memory.
  Rough estimation (10% accuracy) of disk space for files :
_ WF disk file :     33.898 Mbytes ; DEN or POT disk file :      0.208 Mbytes.
================================================================================
 
--------------------------------------------------------------------------------
------------- Echo of variables that govern the present computation ------------
--------------------------------------------------------------------------------
-
- outvars: echo of selected default values                                      
-   iomode0 =  0 , fftalg0 =512 , wfoptalg0 = 10
-
- outvars: echo of global parameters not present in the input file              
-  max_nthreads =    1
-
 -outvars: echo values of preprocessed input variables --------
-          iomode           1
            acell      1.0000000000E+00  1.0000000000E+00  1.0000000000E+00 Bohr
              amu      1.38905500E+02  9.59400000E+01  1.59994000E+01
        autoparal           1
           bandpp          26
     densfor_pred           6
           diemac      4.00000000E+00
          dilatmx      1.04000000E+00
             ecut      3.00000000E+01 Hartree
           ecutsm      5.00000000E-01 Hartree
-          fftalg         401
           ionmov           2
             iscf           7
              ixc     -116133
           jdtset        1
              kpt      2.50000000E-01  2.50000000E-01  2.50000000E-01
                      -2.50000000E-01  2.50000000E-01  2.50000000E-01
         kptrlatt        2    0    0      0    2    0      0    0    2
          kptrlen      2.65000729E+01
P           mkmem           1
            natom          26
            nband         104
           ndtset           1
            ngfft          72      75      75
          ngfftdg          72      75      75
             nkpt           2
-          npband           2
-           npfft          15
-           npkpt           2
            nstep         100
             nsym           2
            ntime         150
           ntypat           3
              occ      2.000000  2.000000  2.000000  2.000000  2.000000  2.000000
                       2.000000  2.000000  2.000000  2.000000  2.000000  2.000000
                       2.000000  2.000000  2.000000  2.000000  2.000000  2.000000
                       2.000000  2.000000  2.000000  2.000000  2.000000  2.000000
                       2.000000  2.000000  2.000000  2.000000  2.000000  2.000000
                       2.000000  2.000000  2.000000  2.000000  2.000000  2.000000
                       2.000000  2.000000  2.000000  2.000000  2.000000  2.000000
                       2.000000  2.000000  2.000000  2.000000  2.000000  2.000000
                       2.000000  2.000000  2.000000  2.000000  2.000000  2.000000
                       2.000000  2.000000  2.000000  2.000000  2.000000  2.000000
                       2.000000  2.000000  2.000000  2.000000  2.000000  2.000000
                       2.000000  2.000000  2.000000  2.000000  2.000000  2.000000
                       2.000000  2.000000  2.000000  2.000000  2.000000  2.000000
                       2.000000  2.000000  2.000000  2.000000  2.000000  2.000000
                       2.000000  2.000000  2.000000  2.000000  2.000000  2.000000
                       2.000000  2.000000  2.000000  2.000000  2.000000  2.000000
                       2.000000  2.000000  2.000000  2.000000  2.000000  2.000000
                       2.000000  2.000000
        paral_kgb           1
        pawecutdg      3.00000000E+01 Hartree
         pawmixdg           1
         pawxcdev           0
           prteig           0
            rprim      1.3731220330E+01  0.0000000000E+00  2.7701810061E-01
                       0.0000000000E+00  1.3579092230E+01  0.0000000000E+00
                       2.7467469090E-01  0.0000000000E+00  1.3247189114E+01
           shiftk      5.00000000E-01  5.00000000E-01  5.00000000E-01
          spgroup           4
           symrel      1  0  0   0  1  0   0  0  1      -1  0  0   0  1  0   0  0 -1
            tnons      0.0000000  0.0000000  0.0000000     0.0000000  0.5000000  0.5000000
           tolmxf      1.00000000E-10
           tolvrs      1.00000000E-20
            typat      1  1  1  1  2  2  2  2  3  3  3  3  3  3  3  3  3  3  3  3
                       3  3  3  3  3  3
           useylm           1
         wfoptalg         114
              wtk        0.50000    0.50000
           xangst      6.0948334228E+00  6.0769840221E+00  6.2363379883E+00
                       2.8855582760E+00  4.4815774951E+00  1.1691430702E+00
                       1.3894428012E+00  2.4841109612E+00  4.4254195126E+00
                       4.4533663617E+00  8.8870443425E-01  2.4825038736E+00
                       1.3727906421E+00  1.1937410613E+00  8.7560577973E-01
                       5.2276762924E+00  2.3012095433E+00  5.7590064970E+00
                       5.9661339957E+00  4.7866141221E+00  2.7760411640E+00
                       2.2565999315E+00  5.8940826041E+00  4.9027510039E+00
                       2.3980325030E+00  2.2863495683E+00  2.2175015971E+00
                       6.5080602096E+00  1.3842846888E+00  4.8860001628E+00
                       4.9408921348E+00  5.8792226291E+00  1.4341453467E+00
                       9.7621601437E-01  4.9771577497E+00  5.7757573381E+00
                       7.1228574905E+00  1.2838073631E+00  1.9162875290E+00
                       3.8515061143E+00  2.2212830880E+00  4.6651298796E+00
                       2.1606714719E-01  4.8766804240E+00  1.7353594148E+00
                       3.6327701096E+00  5.8141561489E+00  5.9966276212E+00
                       2.4973157570E+00  7.0339162084E+00  1.3837013466E+00
                       2.2426013682E+00  2.2090945516E-01  3.9488892209E+00
                       5.2416748557E+00  3.8137825160E+00  6.7128682800E+00
                       4.8416088808E+00  3.4410431475E+00  2.2679455972E+00
                       1.9356442062E+00  2.6836753112E+00  6.8030438720E+00
                       5.5486320178E+00  6.2765483721E+00  3.8587136289E+00
                       2.5683764254E+00  4.6830084353E+00  3.6355542840E+00
                       4.7705482124E+00  1.0901353744E+00  1.6092659711E-02
                       8.6463110461E-01  2.5767472886E-01 -6.6460519903E-01
                       6.4742935331E+00  3.8505477897E+00  4.3162521428E+00
            xcart      1.1517565995E+01  1.1483835516E+01  1.1784970870E+01
                       5.4529148821E+00  8.4689541090E+00  2.2093602128E+00
                       2.6256663715E+00  4.6942894004E+00  8.3628309019E+00
                       8.4156427931E+00  1.6794079938E+00  4.6912524449E+00
                       2.5941983513E+00  2.2558436793E+00  1.6546551241E+00
                       9.8788765040E+00  4.3486558111E+00  1.0882945077E+01
                       1.1274359324E+01  9.0453897946E+00  5.2459575336E+00
                       4.2643558621E+00  1.1138201926E+01  9.2648566950E+00
                       4.5316246884E+00  4.3205745281E+00  4.1904707177E+00
                       1.2298451452E+01  2.6159189518E+00  9.2332021929E+00
                       9.3369329868E+00  1.1110120643E+01  2.7101419400E+00
                       1.8447809137E+00  9.4054650670E+00  1.0914599579E+01
                       1.3460249941E+01  2.4260443237E+00  3.6212586217E+00
                       7.2782917552E+00  4.1976167000E+00  8.8158178468E+00
                       4.0830773450E-01  9.2155904390E+00  3.2793540360E+00
                       6.8649406109E+00  1.0987162815E+01  1.1331983925E+01
                       4.7192428480E+00  1.3292175275E+01  2.6148165947E+00
                       4.2379024112E+00  4.1745837041E-01  7.4623191566E+00
                       9.9053299549E+00  7.2070044856E+00  1.2685482615E+01
                       9.1493148272E+00  6.5026291602E+00  4.2857960630E+00
                       3.6578374403E+00  5.0714113678E+00  1.2855889788E+01
                       1.0485394926E+01  1.1860957483E+01  7.2919119838E+00
                       4.8535280501E+00  8.8496034207E+00  6.8702019381E+00
                       9.0150296251E+00  2.0600573055E+00  3.0410719604E-02
                       1.6339159937E+00  4.8693466891E-01 -1.2559218127E+00
                       1.2234641682E+01  7.2764807841E+00  8.1565344704E+00
             xred      8.2133467481E-01  8.4569979501E-01  8.7244518054E-01
                       3.9394659771E-01  6.2367601349E-01  1.5854154843E-01
                       1.7866532519E-01  3.4569979501E-01  6.2755481946E-01
                       6.0605340229E-01  1.2367601349E-01  3.4145845157E-01
                       1.8650644314E-01  1.6612625064E-01  1.2100600736E-01
                       7.0330697783E-01  3.2024643012E-01  8.0682144881E-01
                       8.1349355686E-01  6.6612625064E-01  3.7899399264E-01
                       2.9669302217E-01  8.2024643012E-01  6.9317855119E-01
                       3.2383116982E-01  3.1817845072E-01  3.0955726432E-01
                       8.8208267653E-01  1.9264313898E-01  6.7854767134E-01
                       6.7616883018E-01  8.1817845072E-01  1.9044273568E-01
                       1.1791732347E-01  6.9264313898E-01  8.2145232866E-01
                       9.7520583284E-01  1.7866027291E-01  2.5296754846E-01
                       5.1695834573E-01  3.0912351347E-01  6.5467556574E-01
                       2.4794167165E-02  6.7866027291E-01  2.4703245154E-01
                       4.8304165427E-01  8.0912351347E-01  8.4532443426E-01
                       3.3988078830E-01  9.7887068221E-01  1.9027911828E-01
                       2.9748872345E-01  3.0742730319E-02  5.5709247689E-01
                       7.0251127655E-01  5.3074273032E-01  9.4290752311E-01
                       6.6011921170E-01  4.7887068221E-01  3.0972088172E-01
                       2.4707893932E-01  3.7347204671E-01  9.6529492705E-01
                       7.5292106068E-01  8.7347204671E-01  5.3470507295E-01
                       3.4323598273E-01  6.5170802809E-01  5.1143826058E-01
                       6.5676401727E-01  1.5170802809E-01 -1.1438260578E-02
                       1.2093984404E-01  3.5859147331E-02 -9.7335693439E-02
                       8.7906015596E-01  5.3585914733E-01  5.9733569344E-01
            znucl       57.00000   42.00000    8.00000
 
================================================================================
 
 chkinp: Checking input parameters for consistency, jdtset=   1.
 
================================================================================
== DATASET  1 ==================================================================
-   mpi_nproc: 60, omp_nthreads: 1 (-1 if OMP is not activated)
 

--- !DatasetInfo
iteration_state: {dtset: 1, }
dimensions: {natom: 26, nkpt: 2, mband: 104, nsppol: 1, nspinor: 1, nspden: 1, mpw: 712, }
cutoff_energies: {ecut:  30.0, pawecutdg:  30.0, }
electrons: {nelect:   2.08000000E+02, charge:   0.00000000E+00, occopt:   1.00000000E+00, tsmear:   1.00000000E-02, }
meta: {optdriver: 0, ionmov: 2, optcell: 0, iscf: 7, paral_kgb: 1, }
...

 Real(R)+Recip(G) space primitive vectors, cartesian coordinates (Bohr,Bohr^-1):
 R(1)= 13.7312203  0.0000000  0.2770181  G(1)=  0.0728572  0.0000000 -0.0015107
 R(2)=  0.0000000 13.5790922  0.0000000  G(2)=  0.0000000  0.0736426  0.0000000
 R(3)=  0.2746747  0.0000000 13.2471891  G(3)= -0.0015236  0.0000000  0.0755193
 Unit cell volume ucvol=  2.4690046E+03 bohr^3
 Angles (23,13,12)=  9.00000000E+01  8.76564203E+01  9.00000000E+01 degrees
 
 Coarse grid specifications (used for wave-functions):
 
 getcut: wavevector=  0.0000  0.0000  0.0000  ngfft=  72  75  75
         ecut(hartree)=     32.448   => boxcut(ratio)=   2.04460
 
 Fine grid specifications (used for densities):
 
 getcut: wavevector=  0.0000  0.0000  0.0000  ngfft=  72  75  75
         ecut(hartree)=     32.448   => boxcut(ratio)=   2.04460
 
--- Pseudopotential description ------------------------------------------------
- pspini: atom type   1  psp file is ~/ABINIT_PAW_PBE/paw_pbe_standard/La.xml
- pspatm: opening atomic psp file    ~/ABINIT_PAW_PBE/paw_pbe_standard/La.xml
- pspatm : Reading pseudopotential header in XML form from ~/ABINIT_PAW_PBE/paw_pbe_standard/La.xml
 Pseudopotential format is: paw10
 basis_size (lnmax)=  8 (lmn_size= 32), orbitals=   0   0   1   1   2   2   3   3
 Spheres core radius: rc_sph= 2.51647158
 1 radial meshes are used:
  - mesh 1: r(i)=AA*[exp(BB*(i-1))-1], size=1500 , AA= 0.15403E-03 BB= 0.87795E-02
 Shapefunction is SIN type: shapef(r)=[sin(pi*r/rshp)/(pi*r/rshp)]**2
 Radius for shape functions =  2.30494653
 mmax= 1500
 Radial grid used for partial waves is grid 1
 Radial grid used for projectors is grid 1
 Radial grid used for (t)core density is grid 1
 Radial grid used for Vloc is grid 1
 Radial grid used for pseudo valence density is grid 1
 Mesh size for Vloc has been set to 1342 to avoid numerical noise.
 Compensation charge density is not taken into account in XC energy/potential
 pspatm: atomic psp has been read  and splines computed
 
- pspini: atom type   2  psp file is ~/ABINIT_PAW_PBE/paw_pbe_standard/Mo.xml
- pspatm: opening atomic psp file    ~/ABINIT_PAW_PBE/paw_pbe_standard/Mo.xml
- pspatm : Reading pseudopotential header in XML form from ~/ABINIT_PAW_PBE/paw_pbe_standard/Mo.xml
 Pseudopotential format is: paw10
 basis_size (lnmax)=  6 (lmn_size= 18), orbitals=   0   0   1   1   2   2
 Spheres core radius: rc_sph= 2.20000000
 1 radial meshes are used:
  - mesh 1: r(i)=AA*[exp(BB*(i-1))-1], size= 846 , AA= 0.34789E-03 BB= 0.14611E-01
 Shapefunction is SIN type: shapef(r)=[sin(pi*r/rshp)/(pi*r/rshp)]**2
 Radius for shape functions =  1.90088266
 mmax=  846
 Radial grid used for partial waves is grid 1
 Radial grid used for projectors is grid 1
 Radial grid used for (t)core density is grid 1
 Radial grid used for Vloc is grid 1
 Radial grid used for pseudo valence density is grid 1
 Mesh size for Vloc has been set to  751 to avoid numerical noise.
 Compensation charge density is not taken into account in XC energy/potential
 pspatm: atomic psp has been read  and splines computed
 
- pspini: atom type   3  psp file is ~/ABINIT_PAW_PBE/paw_pbe_standard/O.xml
- pspatm: opening atomic psp file    ~/ABINIT_PAW_PBE/paw_pbe_standard/O.xml
- pspatm : Reading pseudopotential header in XML form from ~/ABINIT_PAW_PBE/paw_pbe_standard/O.xml
 Pseudopotential format is: paw10
 basis_size (lnmax)=  4 (lmn_size=  8), orbitals=   0   0   1   1
 Spheres core radius: rc_sph= 1.41465230
 1 radial meshes are used:
  - mesh 1: r(i)=AA*[exp(BB*(i-1))-1], size=2001 , AA= 0.72565E-03 BB= 0.58052E-02
 Shapefunction is SIN type: shapef(r)=[sin(pi*r/rshp)/(pi*r/rshp)]**2
 Radius for shape functions =  1.20231231
 mmax= 2001
 Radial grid used for partial waves is grid 1
 Radial grid used for projectors is grid 1
 Radial grid used for (t)core density is grid 1
 Radial grid used for Vloc is grid 1
 Radial grid used for pseudo valence density is grid 1
 Mesh size for Vloc has been set to 1762 to avoid numerical noise.
 Compensation charge density is not taken into account in XC energy/potential
 pspatm: atomic psp has been read  and splines computed
 
   8.97881771E+04                                ecore*ucvol(ha*bohr**3)
--------------------------------------------------------------------------------
 
_setup2: Arith. and geom. avg. npw (full set) are     711.000     710.999
 
================================================================================
 
=== [ionmov= 2] Broyden-Fletcher-Goldfard-Shanno method (forces)            
================================================================================
 
--- Iteration: (  1/150) Internal Cycle: (1/1)
--------------------------------------------------------------------------------
 
---SELF-CONSISTENT-FIELD CONVERGENCE--------------------------------------------

--- !BeginCycle
iteration_state: {dtset: 1, itime: 1, icycle: 1, }
solver: {iscf: 7, nstep: 100, nline: 4, wfoptalg: 114, }
tolerances: {tolvrs: 1.00E-20, }
...
 
     iter   Etot(hartree)      deltaE(h)  residm     vres2
 ETOT  1  -689.56345869971    -6.896E+02 1.228E-02 2.106E+04
 ETOT  2  -682.47811475372     7.085E+00 1.254E-05 4.856E+04
 ETOT  3  -693.60623117225    -1.113E+01 9.712E-05 3.451E+03
 ETOT  4  -694.28842785275    -6.822E-01 1.593E-05 3.394E+02
 ETOT  5  -694.31674720089    -2.832E-02 2.573E-06 1.265E+02
 ETOT  6  -694.33886260281    -2.212E-02 7.027E-07 1.002E+01
 ETOT  7  -694.34030555085    -1.443E-03 2.322E-07 2.501E+00
 ETOT  8  -694.34071015416    -4.046E-04 5.950E-08 1.636E-01
 ETOT  9  -694.34073331618    -2.316E-05 6.398E-09 4.092E-02
 ETOT 10  -694.34073655393    -3.238E-06 2.107E-09 1.605E-02
 ETOT 11  -694.34073944720    -2.893E-06 6.505E-10 6.675E-04
 ETOT 12  -694.34073952950    -8.230E-08 5.040E-11 2.682E-04
 ETOT 13  -694.34073957484    -4.534E-08 1.673E-11 6.748E-05
 ETOT 14  -694.34073958209    -7.247E-09 4.040E-12 2.635E-05
 ETOT 15  -694.34073958614    -4.050E-09 8.875E-13 6.305E-06
 ETOT 16  -694.34073958699    -8.571E-10 1.603E-13 3.833E-07
 ETOT 17  -694.34073958705    -5.627E-11 2.298E-14 1.761E-07
 ETOT 18  -694.34073958707    -1.671E-11 7.081E-15 1.801E-08
 ETOT 19  -694.34073958707    -2.274E-13 5.909E-16 3.250E-09
 ETOT 20  -694.34073958706     2.160E-12 1.951E-16 1.204E-09
 ETOT 21  -694.34073958706     3.411E-13 4.868E-17 2.896E-10
 ETOT 22  -694.34073958706     1.023E-12 1.056E-17 1.252E-10
 ETOT 23  -694.34073958706     1.023E-12 5.925E-18 3.671E-11
 ETOT 24  -694.34073958706     1.023E-12 2.687E-18 1.490E-11
 ETOT 25  -694.34073958706    -3.411E-13 2.101E-19 3.681E-12
 ETOT 26  -694.34073958706     1.023E-12 2.129E-19 1.121E-12
 ETOT 27  -694.34073958706     3.411E-13 7.116E-20 2.646E-13
 ETOT 28  -694.34073958706     0.000E+00 1.736E-20 7.998E-14
 ETOT 29  -694.34073958706    -2.274E-13 5.300E-21 4.087E-14
 ETOT 30  -694.34073958706     1.137E-13 3.562E-21 1.510E-14
 ETOT 31  -694.34073958706     1.137E-13 1.337E-21 2.020E-15
 ETOT 32  -694.34073958706    -1.137E-13 2.627E-22 1.892E-15
 ETOT 33  -694.34073958706    -1.137E-13 1.182E-22 3.370E-16
 ETOT 34  -694.34073958706     6.821E-13 1.343E-23 6.969E-17
 ETOT 35  -694.34073958706    -3.411E-13 4.258E-24 2.796E-17
 ETOT 36  -694.34073958706     2.274E-13 7.677E-25 1.128E-17
 ETOT 37  -694.34073958706     1.137E-13 1.927E-25 3.473E-18
 ETOT 38  -694.34073958706     1.137E-13 1.188E-25 1.664E-18
 ETOT 39  -694.34073958706     1.137E-13 9.471E-26 7.152E-19
 ETOT 40  -694.34073958706    -2.274E-13 5.179E-26 2.394E-19
 ETOT 41  -694.34073958706     0.000E+00 1.612E-26 4.609E-20
 ETOT 42  -694.34073958706    -1.137E-13 4.934E-27 9.074E-21
 
 At SCF step   42       vres2   =  9.07E-21 < tolvrs=  1.00E-20 =>converged.
 
 Cartesian components of stress tensor (hartree/bohr^3)
  sigma(1 1)=  5.16404999E-05  sigma(3 2)=  0.00000000E+00
  sigma(2 2)=  9.11691683E-05  sigma(3 1)= -4.50054106E-05
  sigma(3 3)=  2.38694045E-05  sigma(2 1)=  0.00000000E+00
 

--- !ResultsGS
iteration_state: {dtset: 1, itime: 1, icycle: 1, }
comment   : Summary of ground state results
lattice_vectors:
- [ 13.7312203,   0.0000000,   0.2770181, ]
- [  0.0000000,  13.5790922,   0.0000000, ]
- [  0.2746747,   0.0000000,  13.2471891, ]
lattice_lengths: [  13.73401,   13.57909,   13.25004, ]
lattice_angles: [ 90.000,  87.656,  90.000, ] # degrees, (23, 13, 12)
lattice_volume:   2.4690046E+03
convergence: {deltae: -1.137E-13, res2:  9.074E-21, residm:  4.934E-27, diffor: null, }
etotal    :  -6.94340740E+02
entropy   :   0.00000000E+00
fermie    :   1.17162145E-01
cartesian_stress_tensor: # hartree/bohr^3
- [  5.16404999E-05,   0.00000000E+00,  -4.50054106E-05, ]
- [  0.00000000E+00,   9.11691683E-05,   0.00000000E+00, ]
- [ -4.50054106E-05,   0.00000000E+00,   2.38694045E-05, ]
pressure_GPa:  -1.6346E+00
xred      :
- [  8.2133E-01,   8.4570E-01,   8.7245E-01, La]
- [  3.9395E-01,   6.2368E-01,   1.5854E-01, La]
- [  1.7867E-01,   3.4570E-01,   6.2755E-01, La]
- [  6.0605E-01,   1.2368E-01,   3.4146E-01, La]
- [  1.8651E-01,   1.6613E-01,   1.2101E-01, Mo]
- [  7.0331E-01,   3.2025E-01,   8.0682E-01, Mo]
- [  8.1349E-01,   6.6613E-01,   3.7899E-01, Mo]
- [  2.9669E-01,   8.2025E-01,   6.9318E-01, Mo]
- [  3.2383E-01,   3.1818E-01,   3.0956E-01,  O]
- [  8.8208E-01,   1.9264E-01,   6.7855E-01,  O]
- [  6.7617E-01,   8.1818E-01,   1.9044E-01,  O]
- [  1.1792E-01,   6.9264E-01,   8.2145E-01,  O]
- [  9.7521E-01,   1.7866E-01,   2.5297E-01,  O]
- [  5.1696E-01,   3.0912E-01,   6.5468E-01,  O]
- [  2.4794E-02,   6.7866E-01,   2.4703E-01,  O]
- [  4.8304E-01,   8.0912E-01,   8.4532E-01,  O]
- [  3.3988E-01,   9.7887E-01,   1.9028E-01,  O]
- [  2.9749E-01,   3.0743E-02,   5.5709E-01,  O]
- [  7.0251E-01,   5.3074E-01,   9.4291E-01,  O]
- [  6.6012E-01,   4.7887E-01,   3.0972E-01,  O]
- [  2.4708E-01,   3.7347E-01,   9.6529E-01,  O]
- [  7.5292E-01,   8.7347E-01,   5.3471E-01,  O]
- [  3.4324E-01,   6.5171E-01,   5.1144E-01,  O]
- [  6.5676E-01,   1.5171E-01,  -1.1438E-02,  O]
- [  1.2094E-01,   3.5859E-02,  -9.7336E-02,  O]
- [  8.7906E-01,   5.3586E-01,   5.9734E-01,  O]
cartesian_forces: # hartree/bohr
- [  2.63011104E-03,   1.25762593E-03,   7.44707632E-05, ]
- [ -3.67272469E-03,   1.47196767E-04,  -7.76186330E-04, ]
- [ -2.63011104E-03,   1.25762593E-03,  -7.44707632E-05, ]
- [  3.67272469E-03,   1.47196767E-04,   7.76186330E-04, ]
- [  1.27620072E-03,  -7.02255216E-04,  -1.93730496E-03, ]
- [  5.01958933E-03,   6.04730381E-03,  -8.64068844E-03, ]
- [ -1.27620072E-03,  -7.02255216E-04,   1.93730496E-03, ]
- [ -5.01958933E-03,   6.04730381E-03,   8.64068844E-03, ]
- [ -4.92441405E-03,  -1.15788539E-03,  -4.78572202E-03, ]
- [ -3.72835259E-03,   1.42428018E-03,   6.92655751E-03, ]
- [  4.92441405E-03,  -1.15788539E-03,   4.78572202E-03, ]
- [  3.72835259E-03,   1.42428018E-03,  -6.92655751E-03, ]
- [  2.39738983E-03,  -2.90312645E-03,  -4.06510799E-03, ]
- [  1.64147222E-03,   1.00072386E-03,  -1.84915761E-04, ]
- [ -2.39738983E-03,  -2.90312645E-03,   4.06510799E-03, ]
- [ -1.64147222E-03,   1.00072386E-03,   1.84915761E-04, ]
- [ -4.08043457E-03,   1.62456405E-03,  -3.03451197E-03, ]
- [ -7.15513408E-04,  -4.62004423E-03,   8.44954778E-03, ]
- [  7.15513408E-04,  -4.62004423E-03,  -8.44954778E-03, ]
- [  4.08043457E-03,   1.62456405E-03,   3.03451197E-03, ]
- [  8.39464877E-04,  -5.42228368E-03,   8.67344708E-04, ]
- [ -8.39464877E-04,  -5.42228368E-03,  -8.67344708E-04, ]
- [ -3.17217859E-04,   1.91398360E-04,  -1.40569353E-03, ]
- [  3.17217859E-04,   1.91398360E-04,   1.40569353E-03, ]
- [  4.97721665E-03,   3.11250201E-03,   4.01314978E-03, ]
- [ -4.97721665E-03,   3.11250201E-03,  -4.01314978E-03, ]
force_length_stats: {min:   1.45369694E-03, max:   1.16802250E-02, mean:   5.56321339E-03, }
...

 Integrated electronic density in atomic spheres:
 ------------------------------------------------
 Atom  Sphere_radius  Integrated_density
    1        2.51647          7.86380716
    2        2.51647          7.84643619
    3        2.51647          7.86060091
    4        2.51647          7.84567959
    5        2.20000         11.34432184
    6        2.20000         11.50386154
    7        2.20000         11.33804631
    8        2.20000         11.50966320
    9        1.41465          4.54998112
   10        1.41465          4.54903069
   11        1.41465          4.54779423
   12        1.41465          4.54418245
   13        1.41465          4.52698628
   14        1.41465          4.56266521
   15        1.41465          4.52105492
   16        1.41465          4.57477308
   17        1.41465          4.54828931
   18        1.41465          4.55454783
   19        1.41465          4.54368803
   20        1.41465          4.54095631
   21        1.41465          4.53973703
   22        1.41465          4.54113535
   23        1.41465          4.56511082
   24        1.41465          4.55282669
   25        1.41465          4.52924334
   26        1.41465          4.52930050
 
 PAW TEST:
 ==== Compensation charge inside spheres ============
 The following values must be close to each other ...
 Compensation charge over spherical meshes =     21.012064431457738
 Compensation charge over fft grid         =     21.012036778478425
 
 ==== Results concerning PAW augmentation regions ====
 
 Total pseudopotential strength Dij (hartree):
 Atom #  1
   0.47658  -0.11796   0.00056   0.00007   0.00041   0.00004   0.00001   0.00001  -0.00000  -0.00000   0.00001   0.00002 ...
  -0.11796   0.02325  -0.00011  -0.00001  -0.00008   0.00003   0.00000   0.00003  -0.00000   0.00000  -0.00000   0.00000 ...
   0.00056  -0.00011  -0.17994  -0.00001   0.00001   0.04348   0.00006  -0.00004   0.00010   0.00004  -0.00008   0.00001 ...
   0.00007  -0.00001  -0.00001  -0.17983  -0.00001   0.00006   0.04325   0.00016   0.00001   0.00017   0.00002   0.00012 ...
   0.00041  -0.00008   0.00001  -0.00001  -0.17985  -0.00004   0.00016   0.04327   0.00014   0.00001  -0.00006  -0.00001 ...
   0.00004   0.00003   0.04348   0.00006  -0.00004   0.32000   0.00002  -0.00002   0.00002   0.00001  -0.00003   0.00000 ...
   0.00001   0.00000   0.00006   0.04325   0.00016   0.00002   0.31996   0.00003   0.00000   0.00006   0.00003   0.00010 ...
   0.00001   0.00003  -0.00004   0.00016   0.04327  -0.00002   0.00003   0.31994   0.00005   0.00000   0.00003  -0.00002 ...
  -0.00000  -0.00000   0.00010   0.00001   0.00014   0.00002   0.00000   0.00005  -0.05749   0.00002   0.00001   0.00000 ...
  -0.00000   0.00000   0.00004   0.00017   0.00001   0.00001   0.00006   0.00000   0.00002  -0.05749   0.00000  -0.00000 ...
   0.00001  -0.00000  -0.00008   0.00002  -0.00006  -0.00003   0.00003   0.00003   0.00001   0.00000  -0.05749   0.00001 ...
   0.00002   0.00000   0.00001   0.00012  -0.00001   0.00000   0.00010  -0.00002   0.00000  -0.00000   0.00001  -0.05750 ...
   ...  only 12  components have been written...
 Atom # 26
   0.61736  -1.77087  -0.00034   0.00066   0.00028   0.00250  -0.00475  -0.00209
  -1.77087   5.13814   0.00089  -0.00169  -0.00074  -0.00664   0.01258   0.00563
  -0.00034   0.00089  -0.31056   0.00053   0.00020   0.97066  -0.00270  -0.00106
   0.00066  -0.00169   0.00053  -0.31086  -0.00018  -0.00270   0.97208   0.00088
   0.00028  -0.00074   0.00020  -0.00018  -0.31033  -0.00106   0.00088   0.96946
   0.00250  -0.00664   0.97066  -0.00270  -0.00106  -0.28824   0.01342   0.00529
  -0.00475   0.01258  -0.00270   0.97208   0.00088   0.01342  -0.29494  -0.00423
  -0.00209   0.00563  -0.00106   0.00088   0.96946   0.00529  -0.00423  -0.28220
 
 
 Augmentation waves occupancies Rhoij:
 Atom #  1
   2.02473  -0.08015  -0.00590  -0.00053  -0.00521   0.00301   0.00017   0.00273  -0.00259   0.00410  -0.00364   0.01084 ...
  -0.08015   0.24836   0.02498   0.00186   0.02188  -0.00699  -0.00060  -0.00601   0.00482  -0.00737   0.00982  -0.01935 ...
  -0.00590   0.02498   2.04079  -0.00204   0.00041  -0.01819   0.00133  -0.00053   0.00774  -0.01010  -0.01755  -0.01145 ...
  -0.00053   0.00186  -0.00204   2.04235  -0.00822   0.00133  -0.02095   0.00474  -0.00998   0.00431   0.01263   0.06042 ...
  -0.00521   0.02188   0.00041  -0.00822   2.05811  -0.00052   0.00472  -0.02809   0.02336  -0.00708   0.02943  -0.00454 ...
   0.00301  -0.00699  -0.01819   0.00133  -0.00052   0.01318  -0.00050   0.00012  -0.00171   0.00371   0.00497   0.00410 ...
   0.00017  -0.00060   0.00133  -0.02095   0.00472  -0.00050   0.01474  -0.00195   0.00363   0.00036  -0.00350  -0.01828 ...
   0.00273  -0.00601  -0.00053   0.00474  -0.02809   0.00012  -0.00195   0.01726  -0.00621   0.00255  -0.00996   0.00097 ...
  -0.00259   0.00482   0.00774  -0.00998   0.02336  -0.00171   0.00363  -0.00621   0.10593  -0.01593  -0.00033   0.00775 ...
   0.00410  -0.00737  -0.01010   0.00431  -0.00708   0.00371   0.00036   0.00255  -0.01593   0.06669  -0.01347   0.00112 ...
  -0.00364   0.00982  -0.01755   0.01263   0.02943   0.00497  -0.00350  -0.00996  -0.00033  -0.01347   0.15034  -0.00717 ...
   0.01084  -0.01935  -0.01145   0.06042  -0.00454   0.00410  -0.01828   0.00097   0.00775   0.00112  -0.00717   0.09499 ...
   ...  only 12  components have been written...
 Atom # 26
   1.99236   0.02873   0.00292  -0.01170   0.00597   0.00190  -0.00408  -0.00108
   0.02873   0.00109   0.00502  -0.00961  -0.00414   0.00019  -0.00037  -0.00015
   0.00292   0.00502   1.70533  -0.03334  -0.00855   0.02903  -0.00500  -0.00167
  -0.01170  -0.00961  -0.03334   1.76465   0.01905  -0.00497   0.03268   0.00095
   0.00597  -0.00414  -0.00855   0.01905   1.70796  -0.00166   0.00097   0.02825
   0.00190   0.00019   0.02903  -0.00497  -0.00166   0.00068  -0.00025  -0.00008
  -0.00408  -0.00037  -0.00500   0.03268   0.00097  -0.00025   0.00085   0.00008
  -0.00108  -0.00015  -0.00167   0.00095   0.02825  -0.00008   0.00008   0.00059
 
 
 
---OUTPUT-----------------------------------------------------------------------
 
 Cartesian coordinates (xcart) [bohr]
  1.15175659945814E+01  1.14838355156463E+01  1.17849708699307E+01
  5.45291488213731E+00  8.46895410904231E+00  2.20936021275744E+00
  2.62566637152744E+00  4.69428940042119E+00  8.36283090192264E+00
  8.41564279307551E+00  1.67940799381721E+00  4.69125244493529E+00
  2.59419835131389E+00  2.25584367934582E+00  1.65465512406947E+00
  9.87887650404477E+00  4.34865581113068E+00  1.08829450768267E+01
  1.12743593238989E+01  9.04538979457092E+00  5.24595753362327E+00
  4.26435586206409E+00  1.11382019263558E+01  9.26485669502659E+00
  4.53162468838807E+00  4.32057452812952E+00  4.19047071768132E+00
  1.22984514524216E+01  2.61591895181991E+00  9.23320219288309E+00
  9.33693298682475E+00  1.11101206433546E+01  2.71014194001140E+00
  1.84478091368729E+00  9.40546506704501E+00  1.09145995789702E+01
  1.34602499407121E+01  2.42604432373052E+00  3.62125862167652E+00
  7.27829175522194E+00  4.19761669999706E+00  8.81581784681310E+00
  4.08307734500767E-01  9.21559043895562E+00  3.27935403601622E+00
  6.86494061088693E+00  1.09871628152222E+01  1.13319839250402E+01
  4.71924284802117E+00  1.32921752754581E+01  2.61481659470752E+00
  4.23790241116123E+00  4.17458370412412E-01  7.46231915657429E+00
  9.90532995494762E+00  7.20700448563751E+00  1.26854826152790E+01
  9.14931482719165E+00  6.50262916023298E+00  4.28579606298520E+00
  3.65783744033214E+00  5.07141136779302E+00  1.28558897880465E+01
  1.04853949257767E+01  1.18609574830181E+01  7.29191198380687E+00
  4.85352805013743E+00  8.84960342070017E+00  6.87020193808911E+00
  9.01502962507539E+00  2.06005730547507E+00  3.04107196036189E-02
  1.63391599368406E+00  4.86934668910024E-01 -1.25592181266114E+00
  1.22346416815288E+01  7.27648078413512E+00  8.15653447035387E+00
 Reduced coordinates (xred)
  8.21334674810080E-01  8.45699795005042E-01  8.72445180539722E-01
  3.93946597710774E-01  6.23676013485736E-01  1.58541548430967E-01
  1.78665325189920E-01  3.45699795005042E-01  6.27554819460279E-01
  6.06053402289226E-01  1.23676013485736E-01  3.41458451569033E-01
  1.86506443137800E-01  1.66126250640469E-01  1.21006007359398E-01
  7.03306977825718E-01  3.20246430124328E-01  8.06821448805084E-01
  8.13493556862200E-01  6.66126250640469E-01  3.78993992640603E-01
  2.96693022174282E-01  8.20246430124328E-01  6.93178551194916E-01
  3.23831169823837E-01  3.18178450724484E-01  3.09557264319123E-01
  8.82082676532568E-01  1.92643138983465E-01  6.78547671342464E-01
  6.76168830176163E-01  8.18178450724484E-01  1.90442735680877E-01
  1.17917323467432E-01  6.92643138983465E-01  8.21452328657537E-01
  9.75205832835268E-01  1.78660272907660E-01  2.52967548457217E-01
  5.16958345732597E-01  3.09123513469051E-01  6.54675565740351E-01
  2.47941671647326E-02  6.78660272907660E-01  2.47032451542784E-01
  4.83041654267404E-01  8.09123513469051E-01  8.45324434259650E-01
  3.39880788301667E-01  9.78870682213298E-01  1.90279118277482E-01
  2.97488723446961E-01  3.07427303186210E-02  5.57092476891013E-01
  7.02511276553039E-01  5.30742730318621E-01  9.42907523108987E-01
  6.60119211698333E-01  4.78870682213298E-01  3.09720881722518E-01
  2.47078939318076E-01  3.73472046711688E-01  9.65294927050303E-01
  7.52921060681925E-01  8.73472046711688E-01  5.34705072949697E-01
  3.43235982732320E-01  6.51708028085672E-01  5.11438260577747E-01
  6.56764017267680E-01  1.51708028085672E-01 -1.14382605777467E-02
  1.20939844042328E-01  3.58591473307844E-02 -9.73356934391296E-02
  8.79060155957672E-01  5.35859147330784E-01  5.97335693439130E-01
 Cartesian forces (fcart) [Ha/bohr]; max,rms= 8.64069E-03 3.64107E-03 (free atoms)
  2.63011104195827E-03  1.25762592602294E-03  7.44707632328479E-05
 -3.67272468975885E-03  1.47196767261307E-04 -7.76186330110253E-04
 -2.63011104195827E-03  1.25762592602294E-03 -7.44707632328479E-05
  3.67272468975885E-03  1.47196767261307E-04  7.76186330110253E-04
  1.27620072002610E-03 -7.02255215932213E-04 -1.93730496167278E-03
  5.01958932665695E-03  6.04730380503901E-03 -8.64068844169346E-03
 -1.27620072002610E-03 -7.02255215932213E-04  1.93730496167278E-03
 -5.01958932665695E-03  6.04730380503901E-03  8.64068844169346E-03
 -4.92441405314413E-03 -1.15788538545478E-03 -4.78572201822634E-03
 -3.72835259229719E-03  1.42428018453243E-03  6.92655751467552E-03
  4.92441405314413E-03 -1.15788538545478E-03  4.78572201822634E-03
  3.72835259229719E-03  1.42428018453243E-03 -6.92655751467552E-03
  2.39738982509011E-03 -2.90312644642789E-03 -4.06510799472961E-03
  1.64147221552891E-03  1.00072386010930E-03 -1.84915760831285E-04
 -2.39738982509011E-03 -2.90312644642789E-03  4.06510799472961E-03
 -1.64147221552891E-03  1.00072386010930E-03  1.84915760831285E-04
 -4.08043456640582E-03  1.62456404834849E-03 -3.03451197294735E-03
 -7.15513408181206E-04 -4.62004423389525E-03  8.44954777865602E-03
  7.15513408181206E-04 -4.62004423389525E-03 -8.44954777865602E-03
  4.08043456640582E-03  1.62456404834849E-03  3.03451197294735E-03
  8.39464877287868E-04 -5.42228368464996E-03  8.67344708347166E-04
 -8.39464877287868E-04 -5.42228368464996E-03 -8.67344708347166E-04
 -3.17217859136305E-04  1.91398360481192E-04 -1.40569352504736E-03
  3.17217859136305E-04  1.91398360481192E-04  1.40569352504736E-03
  4.97721664574888E-03  3.11250201456544E-03  4.01314978054032E-03
 -4.97721664574888E-03  3.11250201456544E-03 -4.01314978054032E-03
 Reduced forces (fred)
 -3.61352639582581E-02 -1.70774184408708E-02 -1.70895322149355E-03
  5.06460095885344E-02 -1.99879847866540E-03  1.12910916217026E-02
  3.61352639582581E-02 -1.70774184408708E-02  1.70895322149355E-03
 -5.06460095885344E-02 -1.99879847866540E-03 -1.12910916217026E-02
 -1.69871247308933E-02  9.53598834645825E-03  2.53133051607865E-02
 -6.65314599091607E-02 -8.21168961141771E-02  1.13086079716930E-01
  1.69871247308933E-02  9.53598834645825E-03 -2.53133051607865E-02
  6.65314599091607E-02 -8.21168961141771E-02 -1.13086079716930E-01
  6.89439459822603E-02  1.57230324413808E-02  6.47499765311382E-02
  4.92760491053844E-02 -1.93404319877685E-02 -9.07333332111762E-02
 -6.89439459822603E-02  1.57230324413808E-02 -6.47499765311382E-02
 -4.92760491053844E-02 -1.93404319877685E-02  9.07333332111762E-02
 -3.17929794091642E-02  3.94218217727035E-02  5.31927520665054E-02
 -2.24881916437759E-02 -1.35889215936363E-02  1.99874318050610E-03
  3.17929794091642E-02  3.94218217727035E-02 -5.31927520665054E-02
  2.24881916437759E-02 -1.35889215936363E-02 -1.99874318050610E-03
  5.68699608155382E-02 -2.20601050467976E-02  4.13195460780671E-02
  7.48419457995987E-03  6.27360067608233E-02 -1.11736223928768E-01
 -7.48419457995987E-03  6.27360067608233E-02  1.11736223928768E-01
 -5.68699608155382E-02 -2.20601050467976E-02 -4.13195460780671E-02
 -1.17671473728213E-02  7.36296902535272E-02 -1.17204591343285E-02
  1.17671473728213E-02  7.36296902535272E-02  1.17204591343285E-02
  4.74519086668870E-03 -2.59901598973106E-03  1.87086196802583E-02
 -4.74519086668870E-03 -2.59901598973106E-03 -1.87086196802583E-02
 -6.94549735214292E-02 -4.22649519232462E-02 -5.45300695299634E-02
  6.94549735214292E-02 -4.22649519232462E-02  5.45300695299634E-02
 Total energy (etotal) [Ha]= -6.94340739587060E+02
 
--- Iteration: (  2/150) Internal Cycle: (1/1)
--------------------------------------------------------------------------------
 
---SELF-CONSISTENT-FIELD CONVERGENCE--------------------------------------------

--- !BeginCycle
iteration_state: {dtset: 1, itime: 2, icycle: 1, }
solver: {iscf: 7, nstep: 100, nline: 4, wfoptalg: 114, }
tolerances: {tolvrs: 1.00E-20, }
...
 
     iter   Etot(hartree)      deltaE(h)  residm     vres2
 ETOT  1  -694.34149468919    -6.943E+02 1.038E-09 1.713E+01
 ETOT  2  -694.34152575667    -3.107E-05 1.691E-10 1.750E+00
 ETOT  3  -694.34124849579     2.773E-04 7.966E-08 1.694E+00
 ETOT  4  -694.34155797911    -3.095E-04 9.203E-08 5.491E-02
 ETOT  5  -694.34157438717    -1.641E-05 4.115E-09 4.628E-03
 ETOT  6  -694.34157557502    -1.188E-06 3.497E-11 6.044E-04
 ETOT  7  -694.34157566567    -9.065E-08 2.542E-11 4.697E-05
 ETOT  8  -694.34157566874    -3.075E-09 4.590E-12 2.634E-05
 ETOT  9  -694.34157567298    -4.239E-09 1.582E-12 3.103E-06
 ETOT 10  -694.34157567348    -5.002E-10 1.298E-13 4.503E-07
 ETOT 11  -694.34157567353    -4.604E-11 3.561E-14 2.057E-07
 ETOT 12  -694.34157567357    -4.275E-11 2.572E-14 2.162E-08
 ETOT 13  -694.34157567357    -5.343E-12 2.526E-15 8.947E-09
 ETOT 14  -694.34157567358    -3.411E-13 5.226E-16 1.810E-09
 ETOT 15  -694.34157567358    -1.364E-12 6.136E-17 1.881E-10
 ETOT 16  -694.34157567358    -2.274E-13 8.509E-18 4.318E-11
 ETOT 17  -694.34157567358     3.411E-13 4.064E-18 9.164E-12
 ETOT 18  -694.34157567358    -6.821E-13 6.355E-19 3.407E-12
 ETOT 19  -694.34157567358    -2.274E-13 2.455E-19 9.665E-13
 ETOT 20  -694.34157567358    -6.821E-13 6.708E-20 2.769E-13
 ETOT 21  -694.34157567358     5.684E-13 2.332E-20 1.137E-13
 ETOT 22  -694.34157567358    -3.411E-13 8.216E-21 6.517E-14
 ETOT 23  -694.34157567358     3.411E-13 6.256E-21 9.365E-15
 ETOT 24  -694.34157567358    -9.095E-13 1.104E-21 4.100E-15
 ETOT 25  -694.34157567358     2.274E-13 3.422E-22 3.526E-16
 ETOT 26  -694.34157567358     7.958E-13 3.602E-23 2.092E-16
 ETOT 27  -694.34157567358    -5.684E-13 3.143E-24 4.860E-17
 ETOT 28  -694.34157567358     2.274E-13 1.303E-24 1.017E-17
 ETOT 29  -694.34157567358    -6.821E-13 5.830E-25 3.739E-18
 ETOT 30  -694.34157567358     4.547E-13 2.902E-25 7.870E-19
 ETOT 31  -694.34157567358     2.274E-13 5.762E-26 2.823E-19
 ETOT 32  -694.34157567358    -5.684E-13 1.481E-26 1.418E-19
 ETOT 33  -694.34157567358     5.684E-13 9.385E-27 3.887E-20
 ETOT 34  -694.34157567358    -5.684E-13 6.857E-27 7.589E-21
 
 At SCF step   34       vres2   =  7.59E-21 < tolvrs=  1.00E-20 =>converged.
 
 Cartesian components of stress tensor (hartree/bohr^3)
  sigma(1 1)=  4.06825243E-05  sigma(3 2)=  0.00000000E+00
  sigma(2 2)=  8.25784290E-05  sigma(3 1)= -4.52330804E-05
  sigma(3 3)=  1.67900368E-05  sigma(2 1)=  0.00000000E+00
 

--- !ResultsGS
iteration_state: {dtset: 1, itime: 2, icycle: 1, }
comment   : Summary of ground state results
lattice_vectors:
- [ 13.7312203,   0.0000000,   0.2770181, ]
- [  0.0000000,  13.5790922,   0.0000000, ]
- [  0.2746747,   0.0000000,  13.2471891, ]
lattice_lengths: [  13.73401,   13.57909,   13.25004, ]
lattice_angles: [ 90.000,  87.656,  90.000, ] # degrees, (23, 13, 12)
lattice_volume:   2.4690046E+03
convergence: {deltae: -5.684E-13, res2:  7.589E-21, residm:  6.857E-27, diffor: null, }
etotal    :  -6.94341576E+02
entropy   :   0.00000000E+00
fermie    :   1.16849474E-01
cartesian_stress_tensor: # hartree/bohr^3
- [  4.06825243E-05,   0.00000000E+00,  -4.52330804E-05, ]
- [  0.00000000E+00,   8.25784290E-05,   0.00000000E+00, ]
- [ -4.52330804E-05,   0.00000000E+00,   1.67900368E-05, ]
pressure_GPa:  -1.3735E+00
xred      :
- [  8.2153E-01,   8.4579E-01,   8.7245E-01, La]
- [  3.9368E-01,   6.2369E-01,   1.5849E-01, La]
- [  1.7847E-01,   3.4579E-01,   6.2755E-01, La]
- [  6.0632E-01,   1.2369E-01,   3.4151E-01, La]
- [  1.8660E-01,   1.6607E-01,   1.2086E-01, Mo]
- [  7.0369E-01,   3.2069E-01,   8.0616E-01, Mo]
- [  8.1340E-01,   6.6607E-01,   3.7914E-01, Mo]
- [  2.9631E-01,   8.2069E-01,   6.9384E-01, Mo]
- [  3.2348E-01,   3.1809E-01,   3.0920E-01,  O]
- [  8.8180E-01,   1.9275E-01,   6.7908E-01,  O]
- [  6.7652E-01,   8.1809E-01,   1.9080E-01,  O]
- [  1.1820E-01,   6.9275E-01,   8.2092E-01,  O]
- [  9.7539E-01,   1.7845E-01,   2.5266E-01,  O]
- [  5.1708E-01,   3.0920E-01,   6.5466E-01,  O]
- [  2.4613E-02,   6.7845E-01,   2.4734E-01,  O]
- [  4.8292E-01,   8.0920E-01,   8.4534E-01,  O]
- [  3.3959E-01,   9.7899E-01,   1.9006E-01,  O]
- [  2.9742E-01,   3.0402E-02,   5.5773E-01,  O]
- [  7.0258E-01,   5.3040E-01,   9.4227E-01,  O]
- [  6.6041E-01,   4.7899E-01,   3.0994E-01,  O]
- [  2.4714E-01,   3.7307E-01,   9.6536E-01,  O]
- [  7.5286E-01,   8.7307E-01,   5.3464E-01,  O]
- [  3.4321E-01,   6.5172E-01,   5.1133E-01,  O]
- [  6.5679E-01,   1.5172E-01,  -1.1333E-02,  O]
- [  1.2130E-01,   3.6088E-02,  -9.7040E-02,  O]
- [  8.7870E-01,   5.3609E-01,   5.9704E-01,  O]
cartesian_forces: # hartree/bohr
- [  1.74303263E-03,   1.61498456E-03,   5.18385895E-04, ]
- [ -3.38373691E-03,   6.10025729E-05,  -3.80962082E-06, ]
- [ -1.74303263E-03,   1.61498456E-03,  -5.18385895E-04, ]
- [  3.38373691E-03,   6.10025729E-05,   3.80962082E-06, ]
- [  1.30479725E-03,   1.74953720E-05,  -5.53652108E-04, ]
- [  1.49444603E-03,   2.58141422E-03,  -4.47499299E-03, ]
- [ -1.30479725E-03,   1.74953720E-05,   5.53652108E-04, ]
- [ -1.49444603E-03,   2.58141422E-03,   4.47499299E-03, ]
- [ -4.16118174E-03,  -8.11055806E-04,  -3.70587778E-03, ]
- [ -5.09745363E-04,  -1.71189415E-04,   4.53836822E-03, ]
- [  4.16118174E-03,  -8.11055806E-04,   3.70587778E-03, ]
- [  5.09745363E-04,  -1.71189415E-04,  -4.53836822E-03, ]
- [  1.18195206E-03,  -2.82829052E-03,  -3.29033048E-03, ]
- [  7.65660033E-04,   9.95267603E-04,  -1.22490742E-03, ]
- [ -1.18195206E-03,  -2.82829052E-03,   3.29033048E-03, ]
- [ -7.65660033E-04,   9.95267603E-04,   1.22490742E-03, ]
- [ -2.81145977E-03,   3.90207010E-04,  -2.21748727E-03, ]
- [ -1.09099875E-03,  -1.46095723E-03,   6.64016512E-03, ]
- [  1.09099875E-03,  -1.46095723E-03,  -6.64016512E-03, ]
- [  2.81145977E-03,   3.90207010E-04,   2.21748727E-03, ]
- [  9.69235250E-04,  -3.92465717E-03,  -3.10000409E-04, ]
- [ -9.69235250E-04,  -3.92465717E-03,   3.10000409E-04, ]
- [ -1.06325732E-03,   2.07819691E-03,   6.84494812E-04, ]
- [  1.06325732E-03,   2.07819691E-03,  -6.84494812E-04, ]
- [  4.14072218E-03,   1.45758190E-03,   1.70080962E-03, ]
- [ -4.14072218E-03,   1.45758190E-03,  -1.70080962E-03, ]
force_length_stats: {min:   1.41750930E-03, max:   6.88596160E-03, mean:   3.90359528E-03, }
...

 Integrated electronic density in atomic spheres:
 ------------------------------------------------
 Atom  Sphere_radius  Integrated_density
    1        2.51647          7.86254270
    2        2.51647          7.84454330
    3        2.51647          7.85852463
    4        2.51647          7.84301577
    5        2.20000         11.35182333
    6        2.20000         11.50814004
    7        2.20000         11.34578713
    8        2.20000         11.51814231
    9        1.41465          4.55199148
   10        1.41465          4.55626785
   11        1.41465          4.55076298
   12        1.41465          4.55562141
   13        1.41465          4.52727089
   14        1.41465          4.56233710
   15        1.41465          4.52730053
   16        1.41465          4.57348676
   17        1.41465          4.54838094
   18        1.41465          4.55844735
   19        1.41465          4.55977955
   20        1.41465          4.54339529
   21        1.41465          4.54326489
   22        1.41465          4.54114057
   23        1.41465          4.55880418
   24        1.41465          4.54761673
   25        1.41465          4.53159900
   26        1.41465          4.53730373
 
 PAW TEST:
 ==== Compensation charge inside spheres ============
 The following values must be close to each other ...
 Compensation charge over spherical meshes =     21.016214671866329
 Compensation charge over fft grid         =     21.016195501257620
 
 ==== Results concerning PAW augmentation regions ====
 
 Total pseudopotential strength Dij (hartree):
 Atom #  1
   0.47689  -0.11803   0.00054   0.00007   0.00043   0.00003   0.00001   0.00002   0.00000  -0.00000   0.00001   0.00002 ...
  -0.11803   0.02327  -0.00010  -0.00001  -0.00008   0.00003   0.00000   0.00003  -0.00000   0.00000  -0.00000   0.00000 ...
   0.00054  -0.00010  -0.17986  -0.00001   0.00001   0.04354   0.00006  -0.00004   0.00011   0.00004  -0.00007   0.00001 ...
   0.00007  -0.00001  -0.00001  -0.17976  -0.00001   0.00006   0.04331   0.00016   0.00001   0.00016   0.00002   0.00013 ...
   0.00043  -0.00008   0.00001  -0.00001  -0.17977  -0.00004   0.00016   0.04333   0.00013   0.00001  -0.00006  -0.00001 ...
   0.00003   0.00003   0.04354   0.00006  -0.00004   0.32000   0.00002  -0.00002   0.00002   0.00001  -0.00003   0.00000 ...
   0.00001   0.00000   0.00006   0.04331   0.00016   0.00002   0.31995   0.00003   0.00000   0.00006   0.00002   0.00010 ...
   0.00002   0.00003  -0.00004   0.00016   0.04333  -0.00002   0.00003   0.31993   0.00005   0.00000   0.00002  -0.00002 ...
   0.00000  -0.00000   0.00011   0.00001   0.00013   0.00002   0.00000   0.00005  -0.05748   0.00002   0.00001   0.00000 ...
  -0.00000   0.00000   0.00004   0.00016   0.00001   0.00001   0.00006   0.00000   0.00002  -0.05748   0.00000  -0.00000 ...
   0.00001  -0.00000  -0.00007   0.00002  -0.00006  -0.00003   0.00002   0.00002   0.00001   0.00000  -0.05748   0.00001 ...
   0.00002   0.00000   0.00001   0.00013  -0.00001   0.00000   0.00010  -0.00002   0.00000  -0.00000   0.00001  -0.05749 ...
   ...  only 12  components have been written...
 Atom # 26
   0.61738  -1.77094  -0.00035   0.00066   0.00029   0.00250  -0.00478  -0.00212
  -1.77094   5.13835   0.00089  -0.00170  -0.00075  -0.00665   0.01264   0.00571
  -0.00035   0.00089  -0.31064   0.00054   0.00021   0.97106  -0.00276  -0.00106
   0.00066  -0.00170   0.00054  -0.31094  -0.00018  -0.00276   0.97252   0.00089
   0.00029  -0.00075   0.00021  -0.00018  -0.31041  -0.00106   0.00089   0.96984
   0.00250  -0.00665   0.97106  -0.00276  -0.00106  -0.29024   0.01368   0.00530
  -0.00478   0.01264  -0.00276   0.97252   0.00089   0.01368  -0.29714  -0.00430
  -0.00212   0.00571  -0.00106   0.00089   0.96984   0.00530  -0.00430  -0.28413
 
 
 Augmentation waves occupancies Rhoij:
 Atom #  1
   2.02471  -0.08012  -0.00580  -0.00054  -0.00526   0.00295   0.00017   0.00277  -0.00240   0.00391  -0.00374   0.01081 ...
  -0.08012   0.24784   0.02448   0.00186   0.02222  -0.00689  -0.00066  -0.00601   0.00449  -0.00705   0.01003  -0.01932 ...
  -0.00580   0.02448   2.04086  -0.00191   0.00028  -0.01823   0.00126  -0.00045   0.00822  -0.01023  -0.01719  -0.01135 ...
  -0.00054   0.00186  -0.00191   2.04238  -0.00818   0.00125  -0.02098   0.00473  -0.00992   0.00415   0.01260   0.06063 ...
  -0.00526   0.02222   0.00028  -0.00818   2.05801  -0.00044   0.00470  -0.02802   0.02293  -0.00701   0.02913  -0.00453 ...
   0.00295  -0.00689  -0.01823   0.00125  -0.00044   0.01314  -0.00047   0.00009  -0.00179   0.00372   0.00489   0.00407 ...
   0.00017  -0.00066   0.00126  -0.02098   0.00470  -0.00047   0.01470  -0.00194   0.00360   0.00036  -0.00354  -0.01827 ...
   0.00277  -0.00601  -0.00045   0.00473  -0.02802   0.00009  -0.00194   0.01719  -0.00612   0.00252  -0.00991   0.00094 ...
  -0.00240   0.00449   0.00822  -0.00992   0.02293  -0.00179   0.00360  -0.00612   0.10579  -0.01605  -0.00016   0.00779 ...
   0.00391  -0.00705  -0.01023   0.00415  -0.00701   0.00372   0.00036   0.00252  -0.01605   0.06661  -0.01354   0.00114 ...
  -0.00374   0.01003  -0.01719   0.01260   0.02913   0.00489  -0.00354  -0.00991  -0.00016  -0.01354   0.15025  -0.00705 ...
   0.01081  -0.01932  -0.01135   0.06063  -0.00453   0.00407  -0.01827   0.00094   0.00779   0.00114  -0.00705   0.09498 ...
   ...  only 12  components have been written...
 Atom # 26
   1.99267   0.02887   0.00361  -0.01263   0.00566   0.00192  -0.00412  -0.00111
   0.02887   0.00110   0.00497  -0.00957  -0.00416   0.00020  -0.00038  -0.00015
   0.00361   0.00497   1.70736  -0.03340  -0.00864   0.02915  -0.00503  -0.00165
  -0.01263  -0.00957  -0.03340   1.76692   0.01931  -0.00500   0.03280   0.00095
   0.00566  -0.00416  -0.00864   0.01931   1.70914  -0.00165   0.00097   0.02834
   0.00192   0.00020   0.02915  -0.00500  -0.00165   0.00068  -0.00025  -0.00008
  -0.00412  -0.00038  -0.00503   0.03280   0.00097  -0.00025   0.00086   0.00008
  -0.00111  -0.00015  -0.00165   0.00095   0.02834  -0.00008   0.00008   0.00060
 
 
 
---OUTPUT-----------------------------------------------------------------------
 
 Cartesian coordinates (xcart) [bohr]
  1.15201961056234E+01  1.14850931415723E+01  1.17850453406939E+01
  5.44924215744755E+00  8.46910130580958E+00  2.20858402642733E+00
  2.62303626048548E+00  4.69554702634722E+00  8.36275643115941E+00
  8.41931551776527E+00  1.67955519058447E+00  4.69202863126540E+00
  2.59547455203391E+00  2.25514142412988E+00  1.65271781910779E+00
  9.88389609337143E+00  4.35470311493571E+00  1.08743043883850E+01
  1.12730831231789E+01  9.04468753935499E+00  5.24789483858494E+00
  4.25933627273743E+00  1.11442492301608E+01  9.27349738346828E+00
  4.52670027433492E+00  4.31941664274407E+00  4.18568499566309E+00
  1.22947230998293E+01  2.61734323200444E+00  9.24012875039776E+00
  9.34185740087790E+00  1.11089627579692E+01  2.71492766202963E+00
  1.84850926627959E+00  9.40688934722954E+00  1.09076730214556E+01
  1.34626473305372E+01  2.42314119728409E+00  3.61719351368179E+00
  7.27993322743747E+00  4.19861742385717E+00  8.81563293105227E+00
  4.05910344675677E-01  9.21268731250919E+00  3.28341914401095E+00
  6.86329913867141E+00  1.09881635390823E+01  1.13321688408011E+01
  4.71516241345477E+00  1.32937998395064E+01  2.61178208273457E+00
  4.23718689775305E+00  4.12838326178517E-01  7.47076870435294E+00
  9.90604546835580E+00  7.20238444140362E+00  1.26770330675004E+01
  9.15339526175805E+00  6.50425372428133E+00  4.28883057495815E+00
  3.65867690520943E+00  5.06598908410837E+00  1.28567571327548E+01
  1.04845554608994E+01  1.18555351993335E+01  7.29104463909853E+00
  4.85321083227829E+00  8.84979481906065E+00  6.86879624456406E+00
  9.01534684293452E+00  2.06024870383555E+00  3.18164131286662E-02
  1.63889321032980E+00  4.90047170924589E-01 -1.25190866288060E+00
  1.22296644648830E+01  7.27959328614969E+00  8.15252132057333E+00
 Reduced coordinates (xred)
  8.21526184877285E-01  8.45792409879783E-01  8.72446797411647E-01
  3.93680185771643E-01  6.23686853442102E-01  1.58488526963945E-01
  1.78473815122715E-01  3.45792409879783E-01  6.27553202588354E-01
  6.06319814228357E-01  1.23686853442102E-01  3.41511473036055E-01
  1.86602350183045E-01  1.66074534722791E-01  1.20857759083310E-01
  7.03685744292726E-01  3.20691769452054E-01  8.06161262441502E-01
  8.13397649816955E-01  6.66074534722791E-01  3.79142240916691E-01
  2.96314255707275E-01  8.20691769452054E-01  6.93838737558498E-01
  3.23479620338434E-01  3.18093181004991E-01  3.09203352526432E-01
  8.81800575452277E-01  1.92748026715308E-01  6.79076440469239E-01
  6.76520379661566E-01  8.18093181004992E-01  1.90796647473568E-01
  1.18199424547724E-01  6.92748026715308E-01  8.20923559530762E-01
  9.75386640989409E-01  1.78446479054790E-01  2.52656901791671E-01
  5.17078218173134E-01  3.09197209401233E-01  6.54659100164541E-01
  2.46133590105917E-02  6.78446479054790E-01  2.47343098208330E-01
  4.82921781826868E-01  8.09197209401233E-01  8.45340899835460E-01
  3.39588083324219E-01  9.78990319374662E-01  1.90056170800051E-01
  2.97423828716428E-01  3.04024981325891E-02  5.57731670966124E-01
  7.02576171283572E-01  5.30402498132589E-01  9.42268329033876E-01
  6.60411916675781E-01  4.78990319374662E-01  3.09943829199949E-01
  2.47138790126467E-01  3.73072735506445E-01  9.65359149350125E-01
  7.52861209873534E-01  8.73072735506445E-01  5.34640850649875E-01
  3.43214994650984E-01  6.51722123163402E-01  5.11332586880893E-01
  6.56785005349016E-01  1.51722123163401E-01 -1.13325868808925E-02
  1.21296407673596E-01  3.60883601501499E-02 -9.70402062103352E-02
  8.78703592326405E-01  5.36088360150150E-01  5.97040206210336E-01
 Cartesian forces (fcart) [Ha/bohr]; max,rms= 6.64017E-03 2.42372E-03 (free atoms)
  1.74303263237438E-03  1.61498456113592E-03  5.18385895263065E-04
 -3.38373691225928E-03  6.10025729461091E-05 -3.80962082242553E-06
 -1.74303263237438E-03  1.61498456113592E-03 -5.18385895263065E-04
  3.38373691225928E-03  6.10025729461091E-05  3.80962082242546E-06
  1.30479724759754E-03  1.74953720259905E-05 -5.53652107630791E-04
  1.49444602987132E-03  2.58141422177008E-03 -4.47499299117944E-03
 -1.30479724759754E-03  1.74953720259905E-05  5.53652107630791E-04
 -1.49444602987132E-03  2.58141422177008E-03  4.47499299117944E-03
 -4.16118174037529E-03 -8.11055806497750E-04 -3.70587777711353E-03
 -5.09745363398887E-04 -1.71189414735760E-04  4.53836821630061E-03
  4.16118174037529E-03 -8.11055806497750E-04  3.70587777711353E-03
  5.09745363398887E-04 -1.71189414735760E-04 -4.53836821630061E-03
  1.18195205576793E-03 -2.82829052472768E-03 -3.29033047566866E-03
  7.65660032593776E-04  9.95267603037444E-04 -1.22490742237559E-03
 -1.18195205576793E-03 -2.82829052472768E-03  3.29033047566866E-03
 -7.65660032593776E-04  9.95267603037444E-04  1.22490742237559E-03
 -2.81145976551856E-03  3.90207010368617E-04 -2.21748726974946E-03
 -1.09099874727565E-03 -1.46095722536254E-03  6.64016512392562E-03
  1.09099874727565E-03 -1.46095722536254E-03 -6.64016512392562E-03
  2.81145976551856E-03  3.90207010368617E-04  2.21748726974946E-03
  9.69235250117224E-04 -3.92465717154889E-03 -3.10000408653709E-04
 -9.69235250117224E-04 -3.92465717154889E-03  3.10000408653709E-04
 -1.06325731936764E-03  2.07819690534903E-03  6.84494812139695E-04
  1.06325731936764E-03  2.07819690534903E-03 -6.84494812139695E-04
  4.14072217831692E-03  1.45758189623942E-03  1.70080961832687E-03
 -4.14072217831692E-03  1.45758189623942E-03 -1.70080961832687E-03
 Reduced forces (fred)
 -2.40775673931926E-02 -2.19300243064179E-02 -7.34592293818241E-03
  4.64638924141145E-02 -8.28359564329982E-04  9.79893657936233E-04
  2.40775673931926E-02 -2.19300243064179E-02  7.34592293818241E-03
 -4.64638924141145E-02 -8.28359564329982E-04 -9.79893657936232E-04
 -1.77630868371766E-02 -2.37571270346963E-04  6.97593939257283E-03
 -1.92809136484350E-02 -3.50532618024118E-02  5.88705919373816E-02
  1.77630868371766E-02 -2.37571270346963E-04 -6.97593939257283E-03
  1.92809136484350E-02 -3.50532618024118E-02 -5.88705919373816E-02
  5.81646985322051E-02  1.10134016004751E-02  5.02354350556879E-02
  5.74221575374676E-03  2.32459685157367E-03 -5.99806078809026E-02
 -5.81646985322051E-02  1.10134016004751E-02 -5.02354350556879E-02
 -5.74221575374676E-03  2.32459685157367E-03  5.99806078809026E-02
 -1.53181629982110E-02  3.84056178897856E-02  4.32629777436968E-02
 -1.01741250776675E-02 -1.35148305756245E-02  1.60162728387643E-02
  1.53181629982110E-02  3.84056178897856E-02 -4.32629777436968E-02
  1.01741250776675E-02 -1.35148305756245E-02 -1.60162728387643E-02
  3.92190576002025E-02 -5.29865698276368E-03  3.01477100626752E-02
  1.31412982479566E-02  1.98384729079406E-02 -8.76638534022205E-02
 -1.31412982479566E-02  1.98384729079406E-02  8.76638534022205E-02
 -3.92190576002025E-02 -5.29865698276368E-03 -3.01477100626752E-02
 -1.32229070463400E-02  5.32932817053602E-02  3.84040964617127E-03
  1.32229070463400E-02  5.32932817053602E-02 -3.84040964617126E-03
  1.44102030667341E-02 -2.82200274507707E-02 -8.77558234853613E-03
 -1.44102030667341E-02 -2.82200274507707E-02  8.77558234853613E-03
 -5.73283236047855E-02 -1.97926390024696E-02 -2.36682982455749E-02
  5.73283236047855E-02 -1.97926390024696E-02  2.36682982455749E-02
 Total energy (etotal) [Ha]= -6.94341575673578E+02
 
 Difference of energy with previous step (new-old):
           Absolute (Ha)=-8.36087E-04
           Relative     =-1.20414E-06
 
--- Iteration: (  3/150) Internal Cycle: (1/1)
--------------------------------------------------------------------------------
 
---SELF-CONSISTENT-FIELD CONVERGENCE--------------------------------------------

--- !BeginCycle
iteration_state: {dtset: 1, itime: 3, icycle: 1, }
solver: {iscf: 7, nstep: 100, nline: 4, wfoptalg: 114, }
tolerances: {tolvrs: 1.00E-20, }
...
 
     iter   Etot(hartree)      deltaE(h)  residm     vres2
 ETOT  1  -694.34244056038    -6.943E+02 2.596E-09 6.856E+01
 ETOT  2  -694.34245289058    -1.233E-05 7.328E-11 6.409E+00
 ETOT  3  -694.34225337656     1.995E-04 3.316E-08 1.850E+00
 ETOT  4  -694.34247573999    -2.224E-04 3.835E-08 3.258E-02
 ETOT  5  -694.34248031725    -4.577E-06 2.736E-09 9.484E-03
 ETOT  6  -694.34248156185    -1.245E-06 2.157E-10 2.336E-03
 ETOT  7  -694.34248191176    -3.499E-07 8.963E-11 9.747E-05
 ETOT  8  -694.34248192802    -1.626E-08 3.656E-12 3.630E-05
 ETOT  9  -694.34248193351    -5.487E-09 9.696E-13 1.974E-06
 ETOT 10  -694.34248193367    -1.612E-10 3.799E-13 1.496E-06
 ETOT 11  -694.34248193401    -3.452E-10 1.047E-13 1.084E-07
 ETOT 12  -694.34248193402    -6.821E-12 4.305E-15 2.223E-08
 ETOT 13  -694.34248193403    -7.503E-12 6.921E-16 1.567E-08
 ETOT 14  -694.34248193403    -6.821E-13 4.678E-16 1.001E-09
 ETOT 15  -694.34248193403    -7.958E-13 4.874E-17 1.298E-10
 ETOT 16  -694.34248193403    -1.137E-13 2.068E-17 8.640E-11
 ETOT 17  -694.34248193403     4.547E-13 1.199E-17 2.334E-11
 ETOT 18  -694.34248193403     1.137E-13 1.522E-18 8.515E-12
 ETOT 19  -694.34248193403     0.000E+00 3.706E-19 1.926E-12
 ETOT 20  -694.34248193403     2.274E-13 1.031E-19 6.692E-13
 ETOT 21  -694.34248193403     0.000E+00 4.297E-20 1.772E-13
 ETOT 22  -694.34248193403    -2.274E-13 1.096E-20 5.507E-14
 ETOT 23  -694.34248193403    -2.274E-13 1.053E-20 1.532E-14
 ETOT 24  -694.34248193403     5.684E-13 1.202E-21 6.162E-15
 ETOT 25  -694.34248193403     0.000E+00 3.774E-22 2.805E-15
 ETOT 26  -694.34248193403    -1.137E-13 4.916E-22 6.600E-16
 ETOT 27  -694.34248193403    -3.411E-13 5.712E-23 9.871E-17
 ETOT 28  -694.34248193403     1.137E-13 7.410E-24 4.264E-17
 ETOT 29  -694.34248193403    -2.274E-13 1.591E-24 1.618E-17
 ETOT 30  -694.34248193403     0.000E+00 6.154E-25 3.530E-18
 ETOT 31  -694.34248193403     3.411E-13 1.806E-25 8.653E-19
 ETOT 32  -694.34248193403    -5.684E-13 7.335E-26 3.891E-19
 ETOT 33  -694.34248193403     3.411E-13 2.452E-26 2.258E-19
 ETOT 34  -694.34248193403     2.274E-13 8.588E-27 7.183E-20
 ETOT 35  -694.34248193403     0.000E+00 6.820E-27 2.178E-20
 ETOT 36  -694.34248193403    -2.274E-13 3.181E-27 6.052E-21
 
 At SCF step   36       vres2   =  6.05E-21 < tolvrs=  1.00E-20 =>converged.
 
 Cartesian components of stress tensor (hartree/bohr^3)
  sigma(1 1)=  2.07446406E-05  sigma(3 2)=  0.00000000E+00
  sigma(2 2)=  6.35982875E-05  sigma(3 1)= -4.54642092E-05
  sigma(3 3)= -1.74374844E-06  sigma(2 1)=  0.00000000E+00
 

--- !ResultsGS
iteration_state: {dtset: 1, itime: 3, icycle: 1, }
comment   : Summary of ground state results
lattice_vectors:
- [ 13.7312203,   0.0000000,   0.2770181, ]
- [  0.0000000,  13.5790922,   0.0000000, ]
- [  0.2746747,   0.0000000,  13.2471891, ]
lattice_lengths: [  13.73401,   13.57909,   13.25004, ]
lattice_angles: [ 90.000,  87.656,  90.000, ] # degrees, (23, 13, 12)
lattice_volume:   2.4690046E+03
convergence: {deltae: -2.274E-13, res2:  6.052E-21, residm:  3.181E-27, diffor: null, }
etotal    :  -6.94342482E+02
entropy   :   0.00000000E+00
fermie    :   1.16514852E-01
cartesian_stress_tensor: # hartree/bohr^3
- [  2.07446406E-05,   0.00000000E+00,  -4.54642092E-05, ]
- [  0.00000000E+00,   6.35982875E-05,   0.00000000E+00, ]
- [ -4.54642092E-05,   0.00000000E+00,  -1.74374844E-06, ]
pressure_GPa:  -8.1005E-01
xred      :
- [  8.2194E-01,   8.4614E-01,   8.7254E-01, La]
- [  3.9292E-01,   6.2370E-01,   1.5848E-01, La]
- [  1.7806E-01,   3.4614E-01,   6.2746E-01, La]
- [  6.0708E-01,   1.2370E-01,   3.4152E-01, La]
- [  1.8689E-01,   1.6606E-01,   1.2068E-01, Mo]
- [  7.0415E-01,   3.2138E-01,   8.0499E-01, Mo]
- [  8.1311E-01,   6.6606E-01,   3.7932E-01, Mo]
- [  2.9585E-01,   8.2138E-01,   6.9501E-01, Mo]
- [  3.2255E-01,   3.1790E-01,   3.0834E-01,  O]
- [  8.8157E-01,   1.9276E-01,   6.8020E-01,  O]
- [  6.7745E-01,   8.1790E-01,   1.9166E-01,  O]
- [  1.1843E-01,   6.9276E-01,   8.1980E-01,  O]
- [  9.7570E-01,   1.7781E-01,   2.5187E-01,  O]
- [  5.1728E-01,   3.0942E-01,   6.5441E-01,  O]
- [  2.4298E-02,   6.7781E-01,   2.4813E-01,  O]
- [  4.8272E-01,   8.0942E-01,   8.4559E-01,  O]
- [  3.3894E-01,   9.7912E-01,   1.8954E-01,  O]
- [  2.9716E-01,   2.9976E-02,   5.5932E-01,  O]
- [  7.0284E-01,   5.2998E-01,   9.4068E-01,  O]
- [  6.6106E-01,   4.7912E-01,   3.1046E-01,  O]
- [  2.4735E-01,   3.7215E-01,   9.6532E-01,  O]
- [  7.5265E-01,   8.7215E-01,   5.3468E-01,  O]
- [  3.4300E-01,   6.5213E-01,   5.1143E-01,  O]
- [  6.5700E-01,   1.5213E-01,  -1.1426E-02,  O]
- [  1.2223E-01,   3.6466E-02,  -9.6595E-02,  O]
- [  8.7777E-01,   5.3647E-01,   5.9660E-01,  O]
cartesian_forces: # hartree/bohr
- [  5.77216596E-04,   2.08997098E-03,   9.05365875E-04, ]
- [ -2.71480214E-03,  -8.08983056E-05,   1.09510947E-03, ]
- [ -5.77216596E-04,   2.08997098E-03,  -9.05365875E-04, ]
- [  2.71480214E-03,  -8.08983056E-05,  -1.09510947E-03, ]
- [  7.44084919E-04,   5.81982039E-04,   8.67372234E-04, ]
- [ -2.80805781E-03,  -1.49094478E-03,   6.29970536E-04, ]
- [ -7.44084919E-04,   5.81982039E-04,  -8.67372234E-04, ]
- [  2.80805781E-03,  -1.49094478E-03,  -6.29970536E-04, ]
- [ -2.16000563E-03,   1.88676739E-04,  -1.22230395E-03, ]
- [  4.36290034E-03,  -2.69923281E-03,   5.29019230E-04, ]
- [  2.16000563E-03,   1.88676739E-04,   1.22230395E-03, ]
- [ -4.36290034E-03,  -2.69923281E-03,  -5.29019230E-04, ]
- [ -1.58098579E-03,  -2.62100209E-03,  -1.61926630E-03, ]
- [ -1.08202095E-03,   8.04083589E-04,  -3.27487610E-03, ]
- [  1.58098579E-03,  -2.62100209E-03,   1.61926630E-03, ]
- [  1.08202095E-03,   8.04083589E-04,   3.27487610E-03, ]
- [  2.39558789E-04,  -2.17116438E-03,  -2.66158060E-04, ]
- [ -1.39098073E-03,   3.96974416E-03,   2.93771903E-03, ]
- [  1.39098073E-03,   3.96974416E-03,  -2.93771903E-03, ]
- [ -2.39558789E-04,  -2.17116438E-03,   2.66158060E-04, ]
- [  1.43467435E-03,  -5.42872029E-04,  -2.54754529E-03, ]
- [ -1.43467435E-03,  -5.42872029E-04,   2.54754529E-03, ]
- [ -1.56567576E-03,   3.51392119E-03,   2.23653739E-03, ]
- [  1.56567576E-03,   3.51392119E-03,  -2.23653739E-03, ]
- [  2.50523749E-03,  -1.54226431E-03,  -2.10441660E-03, ]
- [ -2.50523749E-03,  -1.54226431E-03,   2.10441660E-03, ]
force_length_stats: {min:   1.28245860E-03, max:   5.15757874E-03, mean:   3.29418975E-03, }
...

 Integrated electronic density in atomic spheres:
 ------------------------------------------------
 Atom  Sphere_radius  Integrated_density
    1        2.51647          7.85960396
    2        2.51647          7.84055985
    3        2.51647          7.85566127
    4        2.51647          7.83874160
    5        2.20000         11.36370430
    6        2.20000         11.53260793
    7        2.20000         11.36965833
    8        2.20000         11.53015521
    9        1.41465          4.54829641
   10        1.41465          4.56251949
   11        1.41465          4.55834673
   12        1.41465          4.55946485
   13        1.41465          4.52791864
   14        1.41465          4.55815823
   15        1.41465          4.53488268
   16        1.41465          4.57329862
   17        1.41465          4.55144628
   18        1.41465          4.54868019
   19        1.41465          4.56995388
   20        1.41465          4.55145085
   21        1.41465          4.54874941
   22        1.41465          4.54043532
   23        1.41465          4.55909882
   24        1.41465          4.54431891
   25        1.41465          4.53790418
   26        1.41465          4.53990982
 
 PAW TEST:
 ==== Compensation charge inside spheres ============
 The following values must be close to each other ...
 Compensation charge over spherical meshes =     21.025029051589129
 Compensation charge over fft grid         =     21.025016249027313
 
 ==== Results concerning PAW augmentation regions ====
 
 Total pseudopotential strength Dij (hartree):
 Atom #  1
   0.47738  -0.11813   0.00052   0.00007   0.00045   0.00003   0.00000   0.00003   0.00000  -0.00000   0.00001   0.00002 ...
  -0.11813   0.02329  -0.00010  -0.00001  -0.00008   0.00003   0.00000   0.00003  -0.00000   0.00000  -0.00000   0.00000 ...
   0.00052  -0.00010  -0.17975  -0.00001   0.00001   0.04363   0.00005  -0.00003   0.00011   0.00004  -0.00007   0.00001 ...
   0.00007  -0.00001  -0.00001  -0.17964  -0.00001   0.00005   0.04340   0.00016   0.00001   0.00016   0.00002   0.00013 ...
   0.00045  -0.00008   0.00001  -0.00001  -0.17966  -0.00003   0.00016   0.04343   0.00013   0.00001  -0.00007  -0.00001 ...
   0.00003   0.00003   0.04363   0.00005  -0.00003   0.31999   0.00001  -0.00001   0.00003   0.00001  -0.00003   0.00000 ...
   0.00000   0.00000   0.00005   0.04340   0.00016   0.00001   0.31994   0.00003   0.00000   0.00006   0.00002   0.00011 ...
   0.00003   0.00003  -0.00003   0.00016   0.04343  -0.00001   0.00003   0.31992   0.00004   0.00000   0.00002  -0.00002 ...
   0.00000  -0.00000   0.00011   0.00001   0.00013   0.00003   0.00000   0.00004  -0.05746   0.00002   0.00001   0.00000 ...
  -0.00000   0.00000   0.00004   0.00016   0.00001   0.00001   0.00006   0.00000   0.00002  -0.05746   0.00000  -0.00000 ...
   0.00001  -0.00000  -0.00007   0.00002  -0.00007  -0.00003   0.00002   0.00002   0.00001   0.00000  -0.05746   0.00001 ...
   0.00002   0.00000   0.00001   0.00013  -0.00001   0.00000   0.00011  -0.00002   0.00000  -0.00000   0.00001  -0.05746 ...
   ...  only 12  components have been written...
 Atom # 26
   0.61735  -1.77083  -0.00035   0.00067   0.00029   0.00250  -0.00482  -0.00215
  -1.77083   5.13801   0.00089  -0.00172  -0.00076  -0.00662   0.01276   0.00579
  -0.00035   0.00089  -0.31065   0.00055   0.00021   0.97111  -0.00284  -0.00106
   0.00067  -0.00172   0.00055  -0.31097  -0.00018  -0.00284   0.97263   0.00091
   0.00029  -0.00076   0.00021  -0.00018  -0.31042  -0.00106   0.00091   0.96988
   0.00250  -0.00662   0.97111  -0.00284  -0.00106  -0.29037   0.01413   0.00530
  -0.00482   0.01276  -0.00284   0.97263   0.00091   0.01413  -0.29756  -0.00440
  -0.00215   0.00579  -0.00106   0.00091   0.96988   0.00530  -0.00440  -0.28416
 
 
 Augmentation waves occupancies Rhoij:
 Atom #  1
   2.02468  -0.08010  -0.00570  -0.00065  -0.00529   0.00288   0.00023   0.00279  -0.00212   0.00358  -0.00382   0.01069 ...
  -0.08010   0.24696   0.02394   0.00232   0.02249  -0.00678  -0.00085  -0.00594   0.00393  -0.00649   0.01021  -0.01907 ...
  -0.00570   0.02394   2.04106  -0.00171   0.00011  -0.01835   0.00113  -0.00034   0.00877  -0.00999  -0.01664  -0.01120 ...
  -0.00065   0.00232  -0.00171   2.04245  -0.00815   0.00112  -0.02102   0.00470  -0.00982   0.00407   0.01281   0.06067 ...
  -0.00529   0.02249   0.00011  -0.00815   2.05780  -0.00033   0.00467  -0.02789   0.02246  -0.00690   0.02875  -0.00413 ...
   0.00288  -0.00678  -0.01835   0.00112  -0.00033   0.01310  -0.00042   0.00005  -0.00187   0.00366   0.00475   0.00401 ...
   0.00023  -0.00085   0.00113  -0.02102   0.00467  -0.00042   0.01463  -0.00193   0.00356   0.00033  -0.00363  -0.01818 ...
   0.00279  -0.00594  -0.00034   0.00470  -0.02789   0.00005  -0.00193   0.01706  -0.00602   0.00247  -0.00985   0.00081 ...
  -0.00212   0.00393   0.00877  -0.00982   0.02246  -0.00187   0.00356  -0.00602   0.10568  -0.01625   0.00015   0.00795 ...
   0.00358  -0.00649  -0.00999   0.00407  -0.00690   0.00366   0.00033   0.00247  -0.01625   0.06643  -0.01359   0.00120 ...
  -0.00382   0.01021  -0.01664   0.01281   0.02875   0.00475  -0.00363  -0.00985   0.00015  -0.01359   0.15001  -0.00658 ...
   0.01069  -0.01907  -0.01120   0.06067  -0.00413   0.00401  -0.01818   0.00081   0.00795   0.00120  -0.00658   0.09470 ...
   ...  only 12  components have been written...
 Atom # 26
   1.99320   0.02912   0.00483  -0.01408   0.00504   0.00194  -0.00418  -0.00114
   0.02912   0.00112   0.00484  -0.00951  -0.00417   0.00020  -0.00039  -0.00015
   0.00483   0.00484   1.71060  -0.03329  -0.00859   0.02937  -0.00508  -0.00161
  -0.01408  -0.00951  -0.03329   1.77103   0.01942  -0.00504   0.03299   0.00094
   0.00504  -0.00417  -0.00859   0.01942   1.71098  -0.00161   0.00096   0.02849
   0.00194   0.00020   0.02937  -0.00504  -0.00161   0.00069  -0.00026  -0.00008
  -0.00418  -0.00039  -0.00508   0.03299   0.00096  -0.00026   0.00087   0.00008
  -0.00114  -0.00015  -0.00161   0.00094   0.02849  -0.00008   0.00008   0.00060
 
 
 
---OUTPUT-----------------------------------------------------------------------
 
 Cartesian coordinates (xcart) [bohr]
  1.15258680528628E+01  1.14898435914176E+01  1.17864292369899E+01
  5.43884472220300E+00  8.46932342014456E+00  2.20824182164331E+00
  2.61736431324601E+00  4.70029747619249E+00  8.36137253486340E+00
  8.42971295300981E+00  1.67977730491946E+00  4.69237083604941E+00
  2.59942394502477E+00  2.25488643383406E+00  1.65044450443634E+00
  9.88994257950630E+00  4.36402449626776E+00  1.08589341379554E+01
  1.12691337301880E+01  9.04443254905916E+00  5.25016815325640E+00
  4.25328978660256E+00  1.11535706114929E+01  9.28886763389793E+00
  4.51373934168574E+00  4.31680563907489E+00  4.17397092529038E+00
  1.22917975903130E+01  2.61750645199059E+00  9.25493050867907E+00
  9.35481833352709E+00  1.11063517543000E+01  2.72664173240234E+00
  1.85143477579582E+00  9.40705256721569E+00  1.08928712631743E+01
  1.34667562846296E+01  2.41452188609627E+00  3.60687172349359E+00
  7.28263284630370E+00  4.20164159804080E+00  8.81235905678248E+00
  4.01801390583267E-01  9.20406800132138E+00  3.29374093419914E+00
  6.86059951980517E+00  1.09911877132659E+01  1.13354427150709E+01
  4.70608301856511E+00  1.32955129906744E+01  2.60469958149436E+00
  4.23403513696583E+00  4.07050219872047E-01  7.49170417837337E+00
  9.90919722914303E+00  7.19659633509715E+00  1.26560975934800E+01
  9.16247465664770E+00  6.50596687544935E+00  4.29591307619837E+00
  3.66156415214607E+00  5.05343191052884E+00  1.28563199036597E+01
  1.04816682139628E+01  1.18429780257539E+01  7.29148186819361E+00
  4.85030192652059E+00  8.85529695688729E+00  6.86997974749117E+00
  9.01825574869223E+00  2.06575084166218E+00  3.06329102015627E-02
  1.65182338547816E+00  4.95181127286663E-01 -1.24575478931161E+00
  1.22167342897347E+01  7.28472724251176E+00  8.14636744700433E+00
 Reduced coordinates (xred)
  8.21937336560161E-01  8.46142245477380E-01  8.72542666793960E-01
  3.92923174545655E-01  6.23703210524830E-01  1.58478524919669E-01
  1.78062663439839E-01  3.46142245477381E-01  6.27457333206041E-01
  6.07076825454344E-01  1.23703210524830E-01  3.41521475080331E-01
  1.86893526171378E-01  1.66055756568000E-01  1.20680062843723E-01
  7.04149493699584E-01  3.21378220444054E-01  8.04991299721416E-01
  8.13106473828622E-01  6.66055756568000E-01  3.79319937156278E-01
  2.95850506300417E-01  8.21378220444054E-01  6.95008700278584E-01
  3.22553018881259E-01  3.17900899840326E-01  3.08338460744615E-01
  8.81565070511831E-01  1.92760046663577E-01  6.80198716091975E-01
  6.77446981118742E-01  8.17900899840325E-01  1.91661539255386E-01
  1.18434929488169E-01  6.92760046663576E-01  8.19801283908026E-01
  9.75701600686305E-01  1.77811730351302E-01  2.51871147196073E-01
  5.17279850606506E-01  3.09419917527249E-01  6.54407746456611E-01
  2.42983993136957E-02  6.77811730351303E-01  2.48128852803927E-01
  4.82720149393495E-01  8.09419917527249E-01  8.45592253543390E-01
  3.38937283162412E-01  9.79116480324079E-01  1.89535138167692E-01
  2.97162573763352E-01  2.99762467891089E-02  5.59317505228040E-01
  7.02837426236648E-01  5.29976246789109E-01  9.40682494771961E-01
  6.61062716837588E-01  4.79116480324079E-01  3.10464861832308E-01
  2.47349807404846E-01  3.72147992278663E-01  9.65321731246068E-01
  7.52650192595155E-01  8.72147992278664E-01  5.34678268753932E-01
  3.43001272003239E-01  6.52127315037295E-01  5.11426396062474E-01
  6.56998727996761E-01  1.52127315037295E-01 -1.14263960624729E-02
  1.22229167806277E-01  3.64664381744350E-02 -9.65951697518149E-02
  8.77770832193723E-01  5.36466438174435E-01  5.96595169751815E-01
 Cartesian forces (fcart) [Ha/bohr]; max,rms= 4.36290E-03 2.00301E-03 (free atoms)
  5.77216595800590E-04  2.08997098129496E-03  9.05365874865266E-04
 -2.71480214265331E-03 -8.08983055922722E-05  1.09510946567075E-03
 -5.77216595800590E-04  2.08997098129496E-03 -9.05365874865266E-04
  2.71480214265331E-03 -8.08983055922722E-05 -1.09510946567075E-03
  7.44084919090086E-04  5.81982038764574E-04  8.67372234437135E-04
 -2.80805781126152E-03 -1.49094478380836E-03  6.29970535733663E-04
 -7.44084919090086E-04  5.81982038764574E-04 -8.67372234437135E-04
  2.80805781126152E-03 -1.49094478380836E-03 -6.29970535733663E-04
 -2.16000563102493E-03  1.88676739494406E-04 -1.22230395116388E-03
  4.36290033561026E-03 -2.69923280648989E-03  5.29019229915568E-04
  2.16000563102493E-03  1.88676739494406E-04  1.22230395116388E-03
 -4.36290033561026E-03 -2.69923280648989E-03 -5.29019229915568E-04
 -1.58098578676458E-03 -2.62100209109801E-03 -1.61926630358841E-03
 -1.08202094809344E-03  8.04083589056277E-04 -3.27487609614984E-03
  1.58098578676458E-03 -2.62100209109801E-03  1.61926630358841E-03
  1.08202094809344E-03  8.04083589056277E-04  3.27487609614984E-03
  2.39558789380407E-04 -2.17116438335611E-03 -2.66158060137016E-04
 -1.39098073303494E-03  3.96974416367919E-03  2.93771903439399E-03
  1.39098073303494E-03  3.96974416367919E-03 -2.93771903439399E-03
 -2.39558789380407E-04 -2.17116438335611E-03  2.66158060137016E-04
  1.43467434672051E-03 -5.42872029175332E-04 -2.54754528916046E-03
 -1.43467434672051E-03 -5.42872029175332E-04  2.54754528916046E-03
 -1.56567575623520E-03  3.51392119302850E-03  2.23653739027806E-03
  1.56567575623520E-03  3.51392119302850E-03 -2.23653739027806E-03
  2.50523748656953E-03 -1.54226430579795E-03 -2.10441660492109E-03
 -2.50523748656953E-03 -1.54226430579795E-03  2.10441660492109E-03
 Reduced forces (fred)
 -8.17669098994918E-03 -2.83799087139688E-02 -1.21520997518792E-02
  3.69741812283473E-02  1.09852555292461E-03 -1.37614347530706E-02
  8.17669098994918E-03 -2.83799087139688E-02  1.21520997518792E-02
 -3.69741812283473E-02  1.09852555292461E-03  1.37614347530706E-02
 -1.04574717769889E-02 -7.90278778084960E-03 -1.16946253171122E-02
  3.83835472638983E-02  2.02456767298423E-02 -7.57403641188645E-03
  1.04574717769889E-02 -7.90278778084960E-03  1.16946253171122E-02
 -3.83835472638983E-02  2.02456767298423E-02  7.57403641188645E-03
  2.99981135520584E-02 -2.56205884733516E-03  1.67853904750891E-02
 -6.00544936873279E-02  3.66531312307832E-02 -8.20639608481309E-03
 -2.99981135520584E-02 -2.56205884733516E-03 -1.67853904750891E-02
  6.00544936873279E-02  3.66531312307832E-02  8.20639608481309E-03
  2.21574302520968E-02  3.55908291312227E-02  2.18849837321140E-02
  1.57646679955885E-02 -1.09187252167866E-02  4.36801067406015E-02
 -2.21574302520968E-02  3.55908291312227E-02 -2.18849837321140E-02
 -1.57646679955885E-02 -1.09187252167866E-02 -4.36801067406015E-02
 -3.21570391863224E-03  2.94824414090611E-02  3.46004542046870E-03
  1.82860615727197E-02 -5.39055221298911E-02 -3.85344524099977E-02
 -1.82860615727197E-02 -5.39055221298911E-02  3.85344524099977E-02
  3.21570391863224E-03  2.94824414090611E-02 -3.46004542046870E-03
 -1.89941133990534E-02  7.37170935350349E-03  3.33537454896757E-02
  1.89941133990534E-02  7.37170935350349E-03 -3.33537454896757E-02
  2.08790774340332E-02 -4.77158599706677E-02 -2.91977822655173E-02
 -2.08790774340332E-02 -4.77158599706677E-02  2.91977822655173E-02
 -3.38170064156799E-02  2.09425492521616E-02  2.71894794081248E-02
  3.38170064156799E-02  2.09425492521616E-02 -2.71894794081248E-02
 Total energy (etotal) [Ha]= -6.94342481934030E+02
 
 Difference of energy with previous step (new-old):
           Absolute (Ha)=-9.06260E-04
           Relative     =-1.30521E-06
 
--- Iteration: (  4/150) Internal Cycle: (1/1)
--------------------------------------------------------------------------------
 
---SELF-CONSISTENT-FIELD CONVERGENCE--------------------------------------------

--- !BeginCycle
iteration_state: {dtset: 1, itime: 4, icycle: 1, }
solver: {iscf: 7, nstep: 100, nline: 4, wfoptalg: 114, }
tolerances: {tolvrs: 1.00E-20, }
...
 
     iter   Etot(hartree)      deltaE(h)  residm     vres2
 ETOT  1  -694.34287470078    -6.943E+02 7.212E-10 3.712E-01
 ETOT  2  -694.34288307056    -8.370E-06 2.804E-11 9.514E-02
 ETOT  3  -694.34288662547    -3.555E-06 4.374E-09 8.670E-02
 ETOT  4  -694.34289802583    -1.140E-05 2.692E-09 2.890E-03
 ETOT  5  -694.34289867321    -6.474E-07 1.764E-10 3.423E-04
 ETOT  6  -694.34289874961    -7.641E-08 1.272E-11 5.802E-05
 ETOT  7  -694.34289875641    -6.791E-09 2.088E-12 8.183E-06
 ETOT  8  -694.34289875773    -1.325E-09 2.457E-13 2.345E-06
 ETOT  9  -694.34289875803    -3.020E-10 7.116E-14 2.617E-07
 ETOT 10  -694.34289875807    -3.740E-11 1.785E-14 7.855E-08
 ETOT 11  -694.34289875808    -9.322E-12 4.165E-15 7.099E-09
 ETOT 12  -694.34289875808    -1.705E-12 5.549E-16 1.546E-09
 ETOT 13  -694.34289875808     0.000E+00 1.008E-16 4.224E-10
 ETOT 14  -694.34289875808     5.684E-13 3.020E-17 7.059E-11
[...]
     4        0.004079464492      0.002107992021     -0.001201070554
     5        0.004134496292     -0.006567904600     -0.001046161503
     6        0.004822180934      0.011848945438     -0.007738354166
     7       -0.004134496292     -0.006567904600      0.001046161503
     8       -0.004822180934      0.011848945438      0.007738354166
     9       -0.011161754006      0.001049964923     -0.005696937289
    10        0.014470272156     -0.007828208505      0.032459109941
    11        0.011161754006      0.001049964923      0.005696937289
    12       -0.014470272156     -0.007828208505     -0.032459109941
    13       -0.005449788376     -0.019295893404     -0.019839470816
    14        0.008921832058      0.005585675889     -0.013455421913
    15        0.005449788376     -0.019295893404      0.019839470816
    16       -0.008921832058      0.005585675889      0.013455421913
    17        0.006455479096     -0.000974120238      0.012091059544
    18       -0.004365292363      0.014907670004      0.017217465451
    19        0.004365292363      0.014907670004     -0.017217465451
    20       -0.006455479096     -0.000974120238     -0.012091059544
    21       -0.004052084787     -0.013445361812     -0.008863984458
    22        0.004052084787     -0.013445361812      0.008863984458
    23        0.010341901760      0.019894642782     -0.001299676290
    24       -0.010341901760      0.019894642782      0.001299676290
    25        0.020042793883     -0.030651984674      0.011040794510
    26       -0.020042793883     -0.030651984674     -0.011040794510
 
 Cartesian components of stress tensor (hartree/bohr^3)
  sigma(1 1)=  5.77746666E-05  sigma(3 2)=  0.00000000E+00
  sigma(2 2)=  9.45188293E-05  sigma(3 1)= -4.93187753E-05
  sigma(3 3)= -4.13552187E-05  sigma(2 1)=  0.00000000E+00
 
-Cartesian components of stress tensor (GPa)         [Pressure= -1.0880E+00 GPa]
- sigma(1 1)=  1.69978909E+00  sigma(3 2)=  0.00000000E+00
- sigma(2 2)=  2.78083950E+00  sigma(3 1)= -1.45100822E+00
- sigma(3 3)= -1.21671234E+00  sigma(2 1)=  0.00000000E+00
 
== END DATASET(S) ==============================================================
================================================================================
  
 -outvars: echo values of variables after computation  --------
-          iomode           1
            acell      1.0000000000E+00  1.0000000000E+00  1.0000000000E+00 Bohr
              amu      1.38905500E+02  9.59400000E+01  1.59994000E+01
        autoparal           1
           bandpp          26
     densfor_pred           6
           diemac      4.00000000E+00
          dilatmx      1.04000000E+00
             ecut      3.00000000E+01 Hartree
           ecutsm      5.00000000E-01 Hartree
           etotal1    -6.9435169617E+02
            fcart1     3.3610539150E-11  1.0099031064E-11  2.7607687923E-11
                       1.9377234172E-13  2.3971968128E-11 -3.3118661570E-11
                      -3.3610539150E-11  1.0099031064E-11 -2.7607687923E-11
                      -1.9377234172E-13  2.3971968128E-11  3.3118661570E-11
                       1.8352451788E-11 -9.1420676317E-11  5.0282057780E-11
                       6.6486786783E-11  5.0051070181E-11 -5.5064280304E-11
                      -1.8352451788E-11 -9.1420676317E-11 -5.0282057780E-11
                      -6.6486786783E-11  5.0051070181E-11  5.5064280304E-11
                      -1.7834105247E-11  1.9840544077E-11  3.0325801474E-11
                       1.0592931122E-11 -3.0727593952E-11  2.3940165145E-11
                       1.7834105247E-11  1.9840544077E-11 -3.0325801474E-11
                      -1.0592931122E-11 -3.0727593952E-11 -2.3940165145E-11
                      -7.8299623542E-12 -1.3281628310E-11 -3.0048965268E-11
                      -6.8669988670E-12 -5.9078721427E-11  5.7577818521E-11
                       7.8299623542E-12 -1.3281628310E-11  3.0048965268E-11
                       6.8669988670E-12 -5.9078721427E-11 -5.7577818521E-11
                      -4.6419567159E-11  5.1789291100E-11 -1.4333764094E-12
                      -4.0755619826E-11  3.8770667991E-12 -4.0718038038E-11
                       4.0755619826E-11  3.8770667991E-12  4.0718038038E-11
                       4.6419567159E-11  5.1789291100E-11  1.4333764094E-12
                      -4.1207904266E-12  3.4822130412E-11  3.0642363920E-11
                       4.1207904266E-12  3.4822130412E-11 -3.0642363920E-11
                       1.2958725174E-11 -3.1994461500E-11  5.8037241205E-11
                      -1.2958725174E-11 -3.1994461500E-11 -5.8037241205E-11
                      -9.3911424483E-12  3.2051979750E-11 -1.5826274208E-11
                       9.3911424483E-12  3.2051979750E-11  1.5826274208E-11
-          fftalg         401
           ionmov           2
             iscf           7
              ixc     -116133
           jdtset        1
              kpt      2.50000000E-01  2.50000000E-01  2.50000000E-01
                      -2.50000000E-01  2.50000000E-01  2.50000000E-01
         kptrlatt        2    0    0      0    2    0      0    0    2
          kptrlen      2.65000729E+01
P           mkmem           1
            natom          26
            nband         104
           ndtset           1
            ngfft          72      75      75
          ngfftdg          72      75      75
             nkpt           2
-          npband           2
-           npfft          15
-           npkpt           2
            nstep         100
             nsym           2
            ntime         150
           ntypat           3
              occ      2.000000  2.000000  2.000000  2.000000  2.000000  2.000000
                       2.000000  2.000000  2.000000  2.000000  2.000000  2.000000
                       2.000000  2.000000  2.000000  2.000000  2.000000  2.000000
                       2.000000  2.000000  2.000000  2.000000  2.000000  2.000000
                       2.000000  2.000000  2.000000  2.000000  2.000000  2.000000
                       2.000000  2.000000  2.000000  2.000000  2.000000  2.000000
                       2.000000  2.000000  2.000000  2.000000  2.000000  2.000000
                       2.000000  2.000000  2.000000  2.000000  2.000000  2.000000
                       2.000000  2.000000  2.000000  2.000000  2.000000  2.000000
                       2.000000  2.000000  2.000000  2.000000  2.000000  2.000000
                       2.000000  2.000000  2.000000  2.000000  2.000000  2.000000
                       2.000000  2.000000  2.000000  2.000000  2.000000  2.000000
                       2.000000  2.000000  2.000000  2.000000  2.000000  2.000000
                       2.000000  2.000000  2.000000  2.000000  2.000000  2.000000
                       2.000000  2.000000  2.000000  2.000000  2.000000  2.000000
                       2.000000  2.000000  2.000000  2.000000  2.000000  2.000000
                       2.000000  2.000000  2.000000  2.000000  2.000000  2.000000
                       2.000000  2.000000
        paral_kgb           1
        pawecutdg      3.00000000E+01 Hartree
         pawmixdg           1
         pawxcdev           0
           prteig           0
            rprim      1.3731220330E+01  0.0000000000E+00  2.7701810061E-01
                       0.0000000000E+00  1.3579092230E+01  0.0000000000E+00
                       2.7467469090E-01  0.0000000000E+00  1.3247189114E+01
           shiftk      5.00000000E-01  5.00000000E-01  5.00000000E-01
          spgroup           4
           strten1     5.7774666592E-05  9.4518829326E-05 -4.1355218741E-05
                       0.0000000000E+00 -4.9318775274E-05  0.0000000000E+00
           symrel      1  0  0   0  1  0   0  0  1      -1  0  0   0  1  0   0  0 -1
            tnons      0.0000000  0.0000000  0.0000000     0.0000000  0.5000000  0.5000000
           tolmxf      1.00000000E-10
           tolvrs      1.00000000E-20
            typat      1  1  1  1  2  2  2  2  3  3  3  3  3  3  3  3  3  3  3  3
                       3  3  3  3  3  3
           useylm           1
         wfoptalg         114
              wtk        0.50000    0.50000
           xangst      6.1155583020E+00  6.2449047208E+00  6.2935910408E+00
                       2.8560904494E+00  4.4967249906E+00  1.1769646920E+00
                       1.3687179219E+00  2.6520316600E+00  4.3681664601E+00
                       4.4828341884E+00  9.0385192974E-01  2.4746822517E+00
                       1.4026808597E+00  1.1465457662E+00  8.6887815463E-01
                       5.2615906770E+00  2.3863530570E+00  5.7054666703E+00
                       5.9362437780E+00  4.7394188271E+00  2.7827687891E+00
                       2.2226855469E+00  5.9792261178E+00  4.9562908306E+00
                       2.3161003620E+00  2.2938943497E+00  2.1759292167E+00
                       6.6179227910E+00  1.3280331699E+00  5.1156633333E+00
                       5.0228242758E+00  5.8867674105E+00  1.4757177270E+00
                       8.6635343291E-01  4.9209062308E+00  5.5460941675E+00
                       7.0803742735E+00  1.1451519720E+00  1.7764117516E+00
                       3.9143785993E+00  2.2614203369E+00  4.5721137506E+00
                       2.5855036423E-01  4.7380250328E+00  1.8752351921E+00
                       3.5698976246E+00  5.8542933977E+00  6.0896437502E+00
                       2.5459803292E+00  7.0269164276E+00  1.4694073301E+00
                       2.2133846535E+00  3.2803218707E-01  4.0689456417E+00
                       5.2708915704E+00  3.9209052479E+00  6.5928118591E+00
                       4.7929443086E+00  3.4340433668E+00  2.1822396136E+00
                       1.9049123555E+00  2.5870603547E+00  6.7403123591E+00
                       5.5793638684E+00  6.1799334156E+00  3.9214451418E+00
                       2.6433343471E+00  4.8259662875E+00  3.6279594462E+00
                       4.6955902906E+00  1.2330932267E+00  2.3687497589E-02
                       1.0118718295E+00  3.7417348863E-02 -5.8426990235E-01
                       6.3270528082E+00  3.6302904097E+00  4.2359168461E+00
            xcart      1.1556730341E+01  1.1801159648E+01  1.1893163459E+01
                       5.3972287601E+00  8.4975787271E+00  2.2241409360E+00
                       2.5865020256E+00  5.0116135331E+00  8.2546383124E+00
                       8.4713289152E+00  1.7080326119E+00  4.6764717217E+00
                       2.6506826768E+00  2.1666574970E+00  1.6419417551E+00
                       9.9429654029E+00  4.5095537341E+00  1.0781769467E+01
                       1.1217874998E+01  8.9562036122E+00  5.2586709026E+00
                       4.2002669632E+00  1.1299099849E+01  9.3660323047E+00
                       4.3767953804E+00  4.3348320987E+00  4.1119103042E+00
                       1.2506061644E+01  2.5096189865E+00  9.6672026881E+00
                       9.4917622948E+00  1.1124378214E+01  2.7887023535E+00
                       1.6371707225E+00  9.2991651018E+00  1.0480599084E+01
                       1.3379968295E+01  2.1640236075E+00  3.3569317098E+00
                       7.3971035331E+00  4.2734651081E+00  8.6400428371E+00
                       4.8858937995E-01  8.9535697228E+00  3.5436809479E+00
                       6.7461288330E+00  1.1063011223E+01  1.1507758935E+01
                       4.8112055619E+00  1.3278947607E+01  2.7767774316E+00
                       4.1826908219E+00  6.1989099634E-01  7.6891929125E+00
                       9.9605415442E+00  7.4094371116E+00  1.2458608859E+01
                       9.0573521133E+00  6.4894014917E+00  4.1238352261E+00
                       3.5997626591E+00  4.8888355597E+00  1.2737344409E+01
                       1.0543469707E+01  1.1678381675E+01  7.4104573631E+00
                       4.9951779936E+00  9.1197546099E+00  6.8558497745E+00
                       8.8733796816E+00  2.3302084947E+00  4.4762883217E-02
                       1.9121606393E+00  7.0708541969E-02 -1.1041101031E+00
                       1.1956397036E+01  6.8602546572E+00  8.0047227608E+00
             xred      8.2402463751E-01  8.6906837718E-01  8.8055614055E-01
                       3.8986713322E-01  6.2578400551E-01  1.5974261899E-01
                       1.7597536249E-01  3.6906837718E-01  6.1944385945E-01
                       6.1013286678E-01  1.2578400551E-01  3.4025738101E-01
                       1.9064093943E-01  1.5955834604E-01  1.1995984586E-01
                       7.0812915876E-01  3.3209537556E-01  7.9908309464E-01
                       8.0935906057E-01  6.5955834604E-01  3.8004015414E-01
                       2.9187084124E-01  8.3209537556E-01  7.0091690536E-01
                       3.1266941582E-01  3.1922841565E-01  3.0386032703E-01
                       8.9655294869E-01  1.8481493048E-01  7.1100678128E-01
                       6.8733058418E-01  8.1922841565E-01  1.9613967297E-01
                       1.0344705131E-01  6.8481493048E-01  7.8899321872E-01
                       9.6975604446E-01  1.5936437950E-01  2.3312807764E-01
                       5.2588017779E-01  3.1470918936E-01  6.4122014383E-01
                       3.0243955540E-02  6.5936437950E-01  2.6687192236E-01
                       4.7411982221E-01  8.1470918936E-01  8.5877985617E-01
                       3.4633626740E-01  9.7789656198E-01  2.0237017782E-01
                       2.9312343108E-01  4.5650400323E-02  5.7430994234E-01
                       7.0687656892E-01  5.4565040032E-01  9.2569005766E-01
                       6.5366373260E-01  4.7789656198E-01  2.9762982218E-01
                       2.4302685453E-01  3.6002668490E-01  9.5643094259E-01
                       7.5697314547E-01  8.6002668490E-01  5.4356905741E-01
                       3.5357788449E-01  6.7160267087E-01  5.1013858429E-01
                       6.4642211551E-01  1.7160267087E-01 -1.0138584288E-02
                       1.4098263793E-01  5.2071626563E-03 -8.6294898929E-02
                       8.5901736207E-01  5.0520716266E-01  5.8629489893E-01
            znucl       57.00000   42.00000    8.00000
 
================================================================================


- Timing analysis has been suppressed with timopt=0



================================================================================

 Suggested references for the acknowledgment of ABINIT usage.

 The users of ABINIT have little formal obligations with respect to the ABINIT group
 (those specified in the GNU General Public License, http://www.gnu.org/copyleft/gpl.txt).
 However, it is common practice in the scientific literature,
 to acknowledge the efforts of people that have made the research possible.
 In this spirit, please find below suggested citations of work written by ABINIT developers,
 corresponding to implementations inside of ABINIT that you have used in the present run.
 Note also that it will be of great value to readers of publications presenting these results,
 to read papers enabling them to understand the theoretical formalism and details
 of the ABINIT implementation.
 For information on why they are suggested, see also https://docs.abinit.org/theory/acknowledgments.
-
- [1] Implementation of the Projector Augmented-Wave Method in the ABINIT code.
- M. Torrent, F. Jollet, F. Bottin, G. Zerah, and X. Gonze Comput. Mat. Science 42, 337, (2008).
- Comment: PAW calculations. Strong suggestion to cite this paper.
- DOI and bibtex: see https://docs.abinit.org/theory/bibliography/#torrent2008
-
- [2] Libxc: A library of exchange and correlation functionals for density functional theory.
- M.A.L. Marques, M.J.T. Oliveira, T. Burnus, Computer Physics Communications 183, 2227 (2012).
- Comment: to be cited when LibXC is used (negative value of ixc)
- Strong suggestion to cite this paper.
- DOI and bibtex: see https://docs.abinit.org/theory/bibliography/#marques2012
-
- [3] Large scale ab initio calculations based on three levels of parallelization
- F. Bottin, S. Leroux, A. Knyazev, G. Zerah, Comput. Mat. Science 42, 329, (2008).
- Comment: in case LOBPCG algorithm is used (wfoptalg=4/14/114).
- Strong suggestion to cite this paper in your publications.
- This paper is also available at http://www.arxiv.org/abs/0707.3405
- DOI and bibtex: see https://docs.abinit.org/theory/bibliography/#bottin2008
-
- [4] The Abinit project: Impact, environment and recent developments.
- Computer Phys. Comm. 248, 107042 (2020).
- X.Gonze, B. Amadon, G. Antonius, F.Arnardi, L.Baguet, J.-M.Beuken,
- J.Bieder, F.Bottin, J.Bouchet, E.Bousquet, N.Brouwer, F.Bruneval,
- G.Brunin, T.Cavignac, J.-B. Charraud, Wei Chen, M.Cote, S.Cottenier,
- J.Denier, G.Geneste, Ph.Ghosez, M.Giantomassi, Y.Gillet, O.Gingras,
- D.R.Hamann, G.Hautier, Xu He, N.Helbig, N.Holzwarth, Y.Jia, F.Jollet,
- W.Lafargue-Dit-Hauret, K.Lejaeghere, M.A.L.Marques, A.Martin, C.Martins,
- H.P.C. Miranda, F.Naccarato, K. Persson, G.Petretto, V.Planes, Y.Pouillon,
- S.Prokhorenko, F.Ricci, G.-M.Rignanese, A.H.Romero, M.M.Schmitt, M.Torrent,
- M.J.van Setten, B.Van Troeye, M.J.Verstraete, G.Zerah and J.W.Zwanzig
- Comment: the fifth generic paper describing the ABINIT project.
- Note that a version of this paper, that is not formatted for Computer Phys. Comm. 
- is available at https://www.abinit.org/sites/default/files/ABINIT20.pdf .
- The licence allows the authors to put it on the Web.
- DOI and bibtex: see https://docs.abinit.org/theory/bibliography/#gonze2020
-
- [5] ABINIT: Overview, and focus on selected capabilities
- J. Chem. Phys. 152, 124102 (2020).
- A. Romero, D.C. Allan, B. Amadon, G. Antonius, T. Applencourt, L.Baguet,
- J.Bieder, F.Bottin, J.Bouchet, E.Bousquet, F.Bruneval,
- G.Brunin, D.Caliste, M.Cote,
- J.Denier, C. Dreyer, Ph.Ghosez, M.Giantomassi, Y.Gillet, O.Gingras,
- D.R.Hamann, G.Hautier, F.Jollet, G. Jomard,
- A.Martin, 
- H.P.C. Miranda, F.Naccarato, G.Petretto, N.A. Pike, V.Planes,
- S.Prokhorenko, T. Rangel, F.Ricci, G.-M.Rignanese, M.Royo, M.Stengel, M.Torrent,
- M.J.van Setten, B.Van Troeye, M.J.Verstraete, J.Wiktor, J.W.Zwanziger, and X.Gonze.
- Comment: a global overview of ABINIT, with focus on selected capabilities .
- Note that a version of this paper, that is not formatted for J. Chem. Phys 
- is available at https://www.abinit.org/sites/default/files/ABINIT20_JPC.pdf .
- The licence allows the authors to put it on the Web.
- DOI and bibtex: see https://docs.abinit.org/theory/bibliography/#romero2020
-
- [6] Recent developments in the ABINIT software package.
- Computer Phys. Comm. 205, 106 (2016).
- X.Gonze, F.Jollet, F.Abreu Araujo, D.Adams, B.Amadon, T.Applencourt,
- C.Audouze, J.-M.Beuken, J.Bieder, A.Bokhanchuk, E.Bousquet, F.Bruneval
- D.Caliste, M.Cote, F.Dahm, F.Da Pieve, M.Delaveau, M.Di Gennaro,
- B.Dorado, C.Espejo, G.Geneste, L.Genovese, A.Gerossier, M.Giantomassi,
- Y.Gillet, D.R.Hamann, L.He, G.Jomard, J.Laflamme Janssen, S.Le Roux,
- A.Levitt, A.Lherbier, F.Liu, I.Lukacevic, A.Martin, C.Martins,
- M.J.T.Oliveira, S.Ponce, Y.Pouillon, T.Rangel, G.-M.Rignanese,
- A.H.Romero, B.Rousseau, O.Rubel, A.A.Shukri, M.Stankovski, M.Torrent,
- M.J.Van Setten, B.Van Troeye, M.J.Verstraete, D.Waroquier, J.Wiktor,
- B.Xu, A.Zhou, J.W.Zwanziger.
- Comment: the fourth generic paper describing the ABINIT project.
- Note that a version of this paper, that is not formatted for Computer Phys. Comm. 
- is available at https://www.abinit.org/sites/default/files/ABINIT16.pdf .
- The licence allows the authors to put it on the Web.
- DOI and bibtex: see https://docs.abinit.org/theory/bibliography/#gonze2016
-
- Proc.   0 individual time (sec): cpu=      16801.8  wall=      17122.7
 
================================================================================
 
 Calculation completed.
.Delivered   0 WARNINGs and   0 COMMENTs to log file.
+Overall time at end (sec) : cpu=    1021503.5  wall=    1027350.4
